TITLE = "  2.00000E-01 [y]"
VARIABLES="X [m]","Y [m]","Z [m]","Liquid Pressure [Pa]","Liquid Saturation","Material ID"
ZONE T="2.00000E-01", STRANDID=1, SOLUTIONTIME=2.00000E-01, I=1, J=1, K=100, DATAPACKING=POINT
 5.000000E-01  5.000000E-01  5.000000E-02  1.106151E+05  1.000000E+00    1 
 5.000000E-01  5.000000E-01  1.500000E-01  1.096375E+05  1.000000E+00    1 
 5.000000E-01  5.000000E-01  2.500000E-01  1.086598E+05  1.000000E+00    1 
 5.000000E-01  5.000000E-01  3.500000E-01  1.076821E+05  1.000000E+00    1 
 5.000000E-01  5.000000E-01  4.500000E-01  1.067044E+05  1.000000E+00    1 
 5.000000E-01  5.000000E-01  5.500000E-01  1.057268E+05  1.000000E+00    1 
 5.000000E-01  5.000000E-01  6.500000E-01  1.047491E+05  1.000000E+00    1 
 5.000000E-01  5.000000E-01  7.500000E-01  1.037714E+05  1.000000E+00    1 
 5.000000E-01  5.000000E-01  8.500000E-01  1.027937E+05  1.000000E+00    1 
 5.000000E-01  5.000000E-01  9.500000E-01  1.018161E+05  1.000000E+00    1 
 5.000000E-01  5.000000E-01  1.050000E+00  1.008384E+05  9.989365E-01    1 
 5.000000E-01  5.000000E-01  1.150000E+00  9.986084E+04  9.905054E-01    1 
 5.000000E-01  5.000000E-01  1.250000E+00  9.888333E+04  9.743151E-01    1 
 5.000000E-01  5.000000E-01  1.350000E+00  9.790594E+04  9.515995E-01    1 
 5.000000E-01  5.000000E-01  1.450000E+00  9.692870E+04  9.238959E-01    1 
 5.000000E-01  5.000000E-01  1.550000E+00  9.595167E+04  8.927971E-01    1 
 5.000000E-01  5.000000E-01  1.650000E+00  9.497491E+04  8.597611E-01    1 
 5.000000E-01  5.000000E-01  1.750000E+00  9.399851E+04  8.260015E-01    1 
 5.000000E-01  5.000000E-01  1.850000E+00  9.302259E+04  7.924511E-01    1 
 5.000000E-01  5.000000E-01  1.950000E+00  9.204728E+04  7.597772E-01    1 
 5.000000E-01  5.000000E-01  2.050000E+00  9.107276E+04  7.284211E-01    1 
 5.000000E-01  5.000000E-01  2.150000E+00  9.009924E+04  6.986475E-01    1 
 5.000000E-01  5.000000E-01  2.250000E+00  8.912696E+04  6.705901E-01    1 
 5.000000E-01  5.000000E-01  2.350000E+00  8.815625E+04  6.442903E-01    1 
 5.000000E-01  5.000000E-01  2.450000E+00  8.718747E+04  6.197282E-01    1 
 5.000000E-01  5.000000E-01  2.550000E+00  8.622107E+04  5.968444E-01    1 
 5.000000E-01  5.000000E-01  2.650000E+00  8.525757E+04  5.755569E-01    1 
 5.000000E-01  5.000000E-01  2.750000E+00  8.429759E+04  5.557720E-01    1 
 5.000000E-01  5.000000E-01  2.850000E+00  8.334187E+04  5.373919E-01    1 
 5.000000E-01  5.000000E-01  2.950000E+00  8.239128E+04  5.203196E-01    1 
 5.000000E-01  5.000000E-01  3.050000E+00  8.144685E+04  5.044623E-01    1 
 5.000000E-01  5.000000E-01  3.150000E+00  8.050978E+04  4.897333E-01    1 
 5.000000E-01  5.000000E-01  3.250000E+00  7.958148E+04  4.760524E-01    1 
 5.000000E-01  5.000000E-01  3.350000E+00  7.866364E+04  4.633473E-01    1 
 5.000000E-01  5.000000E-01  3.450000E+00  7.775818E+04  4.515531E-01    1 
 5.000000E-01  5.000000E-01  3.550000E+00  7.686740E+04  4.406125E-01    1 
 5.000000E-01  5.000000E-01  3.650000E+00  7.599393E+04  4.304754E-01    1 
 5.000000E-01  5.000000E-01  3.750000E+00  7.514083E+04  4.210989E-01    1 
 5.000000E-01  5.000000E-01  3.850000E+00  7.431161E+04  4.124466E-01    1 
 5.000000E-01  5.000000E-01  3.950000E+00  7.351026E+04  4.044888E-01    1 
 5.000000E-01  5.000000E-01  4.050000E+00  7.274125E+04  3.972012E-01    1 
 5.000000E-01  5.000000E-01  4.150000E+00  7.200955E+04  3.905652E-01    1 
 5.000000E-01  5.000000E-01  4.250000E+00  7.132053E+04  3.845669E-01    1 
 5.000000E-01  5.000000E-01  4.350000E+00  7.067991E+04  3.791961E-01    1 
 5.000000E-01  5.000000E-01  4.450000E+00  7.009357E+04  3.744461E-01    1 
 5.000000E-01  5.000000E-01  4.550000E+00  6.956733E+04  3.703118E-01    1 
 5.000000E-01  5.000000E-01  4.650000E+00  6.910669E+04  3.667889E-01    1 
 5.000000E-01  5.000000E-01  4.750000E+00  6.871650E+04  3.638724E-01    1 
 5.000000E-01  5.000000E-01  4.850000E+00  6.840058E+04  3.615553E-01    1 
 5.000000E-01  5.000000E-01  4.950000E+00  6.816140E+04  3.598267E-01    1 
 5.000000E-01  5.000000E-01  5.050000E+00  6.799981E+04  3.586711E-01    1 
 5.000000E-01  5.000000E-01  5.150000E+00  6.791482E+04  3.580672E-01    1 
 5.000000E-01  5.000000E-01  5.250000E+00  6.790357E+04  3.579875E-01    1 
 5.000000E-01  5.000000E-01  5.350000E+00  6.796145E+04  3.583982E-01    1 
 5.000000E-01  5.000000E-01  5.450000E+00  6.808227E+04  3.592595E-01    1 
 5.000000E-01  5.000000E-01  5.550000E+00  6.825870E+04  3.605272E-01    1 
 5.000000E-01  5.000000E-01  5.650000E+00  6.848258E+04  3.621530E-01    1 
 5.000000E-01  5.000000E-01  5.750000E+00  6.874545E+04  3.640867E-01    1 
 5.000000E-01  5.000000E-01  5.850000E+00  6.903886E+04  3.662775E-01    1 
 5.000000E-01  5.000000E-01  5.950000E+00  6.935478E+04  3.686753E-01    1 
 5.000000E-01  5.000000E-01  6.050000E+00  6.968579E+04  3.712320E-01    1 
 5.000000E-01  5.000000E-01  6.150000E+00  7.002530E+04  3.739029E-01    1 
 5.000000E-01  5.000000E-01  6.250000E+00  7.036761E+04  3.766469E-01    1 
 5.000000E-01  5.000000E-01  6.350000E+00  7.070794E+04  3.794271E-01    1 
 5.000000E-01  5.000000E-01  6.450000E+00  7.104240E+04  3.822112E-01    1 
 5.000000E-01  5.000000E-01  6.550000E+00  7.136790E+04  3.849717E-01    1 
 5.000000E-01  5.000000E-01  6.650000E+00  7.168210E+04  3.876851E-01    1 
 5.000000E-01  5.000000E-01  6.750000E+00  7.198330E+04  3.903323E-01    1 
 5.000000E-01  5.000000E-01  6.850000E+00  7.227033E+04  3.928981E-01    1 
 5.000000E-01  5.000000E-01  6.950000E+00  7.254247E+04  3.953704E-01    1 
 5.000000E-01  5.000000E-01  7.050000E+00  7.279938E+04  3.977406E-01    1 
 5.000000E-01  5.000000E-01  7.150000E+00  7.304099E+04  4.000025E-01    1 
 5.000000E-01  5.000000E-01  7.250000E+00  7.326746E+04  4.021520E-01    1 
 5.000000E-01  5.000000E-01  7.350000E+00  7.347914E+04  4.041874E-01    1 
 5.000000E-01  5.000000E-01  7.450000E+00  7.367649E+04  4.061083E-01    1 
 5.000000E-01  5.000000E-01  7.550000E+00  7.386007E+04  4.079155E-01    1 
 5.000000E-01  5.000000E-01  7.650000E+00  7.403049E+04  4.096112E-01    1 
 5.000000E-01  5.000000E-01  7.750000E+00  7.418842E+04  4.111982E-01    1 
 5.000000E-01  5.000000E-01  7.850000E+00  7.433453E+04  4.126800E-01    1 
 5.000000E-01  5.000000E-01  7.950000E+00  7.446951E+04  4.140606E-01    1 
 5.000000E-01  5.000000E-01  8.050000E+00  7.459402E+04  4.153442E-01    1 
 5.000000E-01  5.000000E-01  8.150000E+00  7.470874E+04  4.165356E-01    1 
 5.000000E-01  5.000000E-01  8.250000E+00  7.481430E+04  4.176393E-01    1 
 5.000000E-01  5.000000E-01  8.350000E+00  7.491133E+04  4.186601E-01    1 
 5.000000E-01  5.000000E-01  8.450000E+00  7.500041E+04  4.196026E-01    1 
 5.000000E-01  5.000000E-01  8.550000E+00  7.508212E+04  4.204717E-01    1 
 5.000000E-01  5.000000E-01  8.650000E+00  7.515697E+04  4.212717E-01    1 
 5.000000E-01  5.000000E-01  8.750000E+00  7.522548E+04  4.220072E-01    1 
 5.000000E-01  5.000000E-01  8.850000E+00  7.528812E+04  4.226824E-01    1 
 5.000000E-01  5.000000E-01  8.950000E+00  7.534533E+04  4.233014E-01    1 
 5.000000E-01  5.000000E-01  9.050000E+00  7.539754E+04  4.238681E-01    1 
 5.000000E-01  5.000000E-01  9.150000E+00  7.544512E+04  4.243863E-01    1 
 5.000000E-01  5.000000E-01  9.250000E+00  7.548844E+04  4.248594E-01    1 
 5.000000E-01  5.000000E-01  9.350000E+00  7.552785E+04  4.252909E-01    1 
 5.000000E-01  5.000000E-01  9.450000E+00  7.556365E+04  4.256838E-01    1 
 5.000000E-01  5.000000E-01  9.550000E+00  7.559613E+04  4.260410E-01    1 
 5.000000E-01  5.000000E-01  9.650000E+00  7.562557E+04  4.263655E-01    1 
 5.000000E-01  5.000000E-01  9.750000E+00  7.565223E+04  4.266596E-01    1 
 5.000000E-01  5.000000E-01  9.850000E+00  7.567632E+04  4.269260E-01    1 
 5.000000E-01  5.000000E-01  9.950000E+00  7.569807E+04  4.271668E-01    1 
