TITLE = "  1.00000E-01 [y]"
VARIABLES="X [m]","Y [m]","Z [m]","Liquid Pressure [Pa]","Liquid Saturation","Material ID"
ZONE T="1.00000E-01", STRANDID=1, SOLUTIONTIME=1.00000E-01, I=1, J=1, K=100, DATAPACKING=POINT
 5.000000E-01  5.000000E-01  5.000000E-02  1.106150E+05  1.000000E+00    1 
 5.000000E-01  5.000000E-01  1.500000E-01  1.096371E+05  1.000000E+00    1 
 5.000000E-01  5.000000E-01  2.500000E-01  1.086592E+05  1.000000E+00    1 
 5.000000E-01  5.000000E-01  3.500000E-01  1.076813E+05  1.000000E+00    1 
 5.000000E-01  5.000000E-01  4.500000E-01  1.067034E+05  1.000000E+00    1 
 5.000000E-01  5.000000E-01  5.500000E-01  1.057255E+05  1.000000E+00    1 
 5.000000E-01  5.000000E-01  6.500000E-01  1.047476E+05  1.000000E+00    1 
 5.000000E-01  5.000000E-01  7.500000E-01  1.037697E+05  1.000000E+00    1 
 5.000000E-01  5.000000E-01  8.500000E-01  1.027918E+05  1.000000E+00    1 
 5.000000E-01  5.000000E-01  9.500000E-01  1.018139E+05  1.000000E+00    1 
 5.000000E-01  5.000000E-01  1.050000E+00  1.008361E+05  9.989261E-01    1 
 5.000000E-01  5.000000E-01  1.150000E+00  9.985816E+04  9.904712E-01    1 
 5.000000E-01  5.000000E-01  1.250000E+00  9.888026E+04  9.742532E-01    1 
 5.000000E-01  5.000000E-01  1.350000E+00  9.790237E+04  9.515064E-01    1 
 5.000000E-01  5.000000E-01  1.450000E+00  9.692447E+04  9.237675E-01    1 
 5.000000E-01  5.000000E-01  1.550000E+00  9.594658E+04  8.926288E-01    1 
 5.000000E-01  5.000000E-01  1.650000E+00  9.496868E+04  8.595471E-01    1 
 5.000000E-01  5.000000E-01  1.750000E+00  9.399079E+04  8.257341E-01    1 
 5.000000E-01  5.000000E-01  1.850000E+00  9.301290E+04  7.921212E-01    1 
 5.000000E-01  5.000000E-01  1.950000E+00  9.203500E+04  7.593733E-01    1 
 5.000000E-01  5.000000E-01  2.050000E+00  9.105711E+04  7.279297E-01    1 
 5.000000E-01  5.000000E-01  2.150000E+00  9.007922E+04  6.980526E-01    1 
 5.000000E-01  5.000000E-01  2.250000E+00  8.910132E+04  6.698734E-01    1 
 5.000000E-01  5.000000E-01  2.350000E+00  8.812343E+04  6.434309E-01    1 
 5.000000E-01  5.000000E-01  2.450000E+00  8.714554E+04  6.187022E-01    1 
 5.000000E-01  5.000000E-01  2.550000E+00  8.616765E+04  5.956251E-01    1 
 5.000000E-01  5.000000E-01  2.650000E+00  8.518977E+04  5.741140E-01    1 
 5.000000E-01  5.000000E-01  2.750000E+00  8.421188E+04  5.540715E-01    1 
 5.000000E-01  5.000000E-01  2.850000E+00  8.323400E+04  5.353956E-01    1 
 5.000000E-01  5.000000E-01  2.950000E+00  8.225612E+04  5.179847E-01    1 
 5.000000E-01  5.000000E-01  3.050000E+00  8.127825E+04  5.017407E-01    1 
 5.000000E-01  5.000000E-01  3.150000E+00  8.030038E+04  4.865707E-01    1 
 5.000000E-01  5.000000E-01  3.250000E+00  7.932251E+04  4.723878E-01    1 
 5.000000E-01  5.000000E-01  3.350000E+00  7.834466E+04  4.591116E-01    1 
 5.000000E-01  5.000000E-01  3.450000E+00  7.736681E+04  4.466684E-01    1 
 5.000000E-01  5.000000E-01  3.550000E+00  7.638898E+04  4.349905E-01    1 
 5.000000E-01  5.000000E-01  3.650000E+00  7.541116E+04  4.240164E-01    1 
 5.000000E-01  5.000000E-01  3.750000E+00  7.443337E+04  4.136898E-01    1 
 5.000000E-01  5.000000E-01  3.850000E+00  7.345560E+04  4.039598E-01    1 
 5.000000E-01  5.000000E-01  3.950000E+00  7.247786E+04  3.947799E-01    1 
 5.000000E-01  5.000000E-01  4.050000E+00  7.150017E+04  3.861080E-01    1 
 5.000000E-01  5.000000E-01  4.150000E+00  7.052253E+04  3.779059E-01    1 
 5.000000E-01  5.000000E-01  4.250000E+00  6.954496E+04  3.701386E-01    1 
 5.000000E-01  5.000000E-01  4.350000E+00  6.856749E+04  3.627746E-01    1 
 5.000000E-01  5.000000E-01  4.450000E+00  6.759014E+04  3.557850E-01    1 
 5.000000E-01  5.000000E-01  4.550000E+00  6.661295E+04  3.491435E-01    1 
 5.000000E-01  5.000000E-01  4.650000E+00  6.563599E+04  3.428263E-01    1 
 5.000000E-01  5.000000E-01  4.750000E+00  6.465931E+04  3.368115E-01    1 
 5.000000E-01  5.000000E-01  4.850000E+00  6.368303E+04  3.310795E-01    1 
 5.000000E-01  5.000000E-01  4.950000E+00  6.270727E+04  3.256121E-01    1 
 5.000000E-01  5.000000E-01  5.050000E+00  6.173222E+04  3.203932E-01    1 
 5.000000E-01  5.000000E-01  5.150000E+00  6.075815E+04  3.154079E-01    1 
 5.000000E-01  5.000000E-01  5.250000E+00  5.978542E+04  3.106431E-01    1 
 5.000000E-01  5.000000E-01  5.350000E+00  5.881453E+04  3.060873E-01    1 
 5.000000E-01  5.000000E-01  5.450000E+00  5.784618E+04  3.017305E-01    1 
 5.000000E-01  5.000000E-01  5.550000E+00  5.688138E+04  2.975645E-01    1 
 5.000000E-01  5.000000E-01  5.650000E+00  5.592153E+04  2.935831E-01    1 
 5.000000E-01  5.000000E-01  5.750000E+00  5.496864E+04  2.897826E-01    1 
 5.000000E-01  5.000000E-01  5.850000E+00  5.402556E+04  2.861620E-01    1 
 5.000000E-01  5.000000E-01  5.950000E+00  5.309635E+04  2.827245E-01    1 
 5.000000E-01  5.000000E-01  6.050000E+00  5.218682E+04  2.794781E-01    1 
 5.000000E-01  5.000000E-01  6.150000E+00  5.130523E+04  2.764374E-01    1 
 5.000000E-01  5.000000E-01  6.250000E+00  5.046330E+04  2.736264E-01    1 
 5.000000E-01  5.000000E-01  6.350000E+00  4.967748E+04  2.710808E-01    1 
 5.000000E-01  5.000000E-01  6.450000E+00  4.897050E+04  2.688525E-01    1 
 5.000000E-01  5.000000E-01  6.550000E+00  4.837295E+04  2.670130E-01    1 
 5.000000E-01  5.000000E-01  6.650000E+00  4.792441E+04  2.656579E-01    1 
 5.000000E-01  5.000000E-01  6.750000E+00  4.767299E+04  2.649077E-01    1 
 5.000000E-01  5.000000E-01  6.850000E+00  4.767195E+04  2.649046E-01    1 
 5.000000E-01  5.000000E-01  6.950000E+00  4.797189E+04  2.658003E-01    1 
 5.000000E-01  5.000000E-01  7.050000E+00  4.860873E+04  2.677341E-01    1 
 5.000000E-01  5.000000E-01  7.150000E+00  4.959073E+04  2.708043E-01    1 
 5.000000E-01  5.000000E-01  7.250000E+00  5.089031E+04  2.750410E-01    1 
 5.000000E-01  5.000000E-01  7.350000E+00  5.244604E+04  2.803918E-01    1 
 5.000000E-01  5.000000E-01  7.450000E+00  5.417464E+04  2.867254E-01    1 
 5.000000E-01  5.000000E-01  7.550000E+00  5.598774E+04  2.938527E-01    1 
 5.000000E-01  5.000000E-01  7.650000E+00  5.780638E+04  3.015552E-01    1 
 5.000000E-01  5.000000E-01  7.750000E+00  5.956939E+04  3.096125E-01    1 
 5.000000E-01  5.000000E-01  7.850000E+00  6.123526E+04  3.178221E-01    1 
 5.000000E-01  5.000000E-01  7.950000E+00  6.278003E+04  3.260112E-01    1 
 5.000000E-01  5.000000E-01  8.050000E+00  6.419322E+04  3.340412E-01    1 
 5.000000E-01  5.000000E-01  8.150000E+00  6.547374E+04  3.418068E-01    1 
 5.000000E-01  5.000000E-01  8.250000E+00  6.662643E+04  3.492328E-01    1 
 5.000000E-01  5.000000E-01  8.350000E+00  6.765948E+04  3.562691E-01    1 
 5.000000E-01  5.000000E-01  8.450000E+00  6.858265E+04  3.628859E-01    1 
 5.000000E-01  5.000000E-01  8.550000E+00  6.940620E+04  3.690694E-01    1 
 5.000000E-01  5.000000E-01  8.650000E+00  7.014015E+04  3.748178E-01    1 
 5.000000E-01  5.000000E-01  8.750000E+00  7.079395E+04  3.801381E-01    1 
 5.000000E-01  5.000000E-01  8.850000E+00  7.137628E+04  3.850435E-01    1 
 5.000000E-01  5.000000E-01  8.950000E+00  7.189501E+04  3.895517E-01    1 
 5.000000E-01  5.000000E-01  9.050000E+00  7.235718E+04  3.936828E-01    1 
 5.000000E-01  5.000000E-01  9.150000E+00  7.276905E+04  3.974589E-01    1 
 5.000000E-01  5.000000E-01  9.250000E+00  7.313618E+04  4.009025E-01    1 
 5.000000E-01  5.000000E-01  9.350000E+00  7.346351E+04  4.040363E-01    1 
 5.000000E-01  5.000000E-01  9.450000E+00  7.375539E+04  4.068825E-01    1 
 5.000000E-01  5.000000E-01  9.550000E+00  7.401566E+04  4.094629E-01    1 
 5.000000E-01  5.000000E-01  9.650000E+00  7.424773E+04  4.117981E-01    1 
 5.000000E-01  5.000000E-01  9.750000E+00  7.445463E+04  4.139078E-01    1 
 5.000000E-01  5.000000E-01  9.850000E+00  7.463902E+04  4.158106E-01    1 
 5.000000E-01  5.000000E-01  9.950000E+00  7.480328E+04  4.175238E-01    1 
