TITLE = "  1.00000E+01 [y]"
VARIABLES="X [m]","Y [m]","Z [m]","Liquid Pressure [Pa]","Liquid Saturation","Material ID"
ZONE T="1.00000E+01", STRANDID=1, SOLUTIONTIME=1.00000E+01, I=1, J=1, K=100, DATAPACKING=POINT
 5.000000E-01  5.000000E-01  5.000000E-02  1.106152E+05  1.000000E+00    1 
 5.000000E-01  5.000000E-01  1.500000E-01  1.096375E+05  1.000000E+00    1 
 5.000000E-01  5.000000E-01  2.500000E-01  1.086599E+05  1.000000E+00    1 
 5.000000E-01  5.000000E-01  3.500000E-01  1.076823E+05  1.000000E+00    1 
 5.000000E-01  5.000000E-01  4.500000E-01  1.067047E+05  1.000000E+00    1 
 5.000000E-01  5.000000E-01  5.500000E-01  1.057271E+05  1.000000E+00    1 
 5.000000E-01  5.000000E-01  6.500000E-01  1.047495E+05  1.000000E+00    1 
 5.000000E-01  5.000000E-01  7.500000E-01  1.037719E+05  1.000000E+00    1 
 5.000000E-01  5.000000E-01  8.500000E-01  1.027942E+05  1.000000E+00    1 
 5.000000E-01  5.000000E-01  9.500000E-01  1.018166E+05  1.000000E+00    1 
 5.000000E-01  5.000000E-01  1.050000E+00  1.008390E+05  9.989392E-01    1 
 5.000000E-01  5.000000E-01  1.150000E+00  9.986154E+04  9.905144E-01    1 
 5.000000E-01  5.000000E-01  1.250000E+00  9.888414E+04  9.743313E-01    1 
 5.000000E-01  5.000000E-01  1.350000E+00  9.790688E+04  9.516239E-01    1 
 5.000000E-01  5.000000E-01  1.450000E+00  9.692981E+04  9.239294E-01    1 
 5.000000E-01  5.000000E-01  1.550000E+00  9.595300E+04  8.928410E-01    1 
 5.000000E-01  5.000000E-01  1.650000E+00  9.497653E+04  8.598167E-01    1 
 5.000000E-01  5.000000E-01  1.750000E+00  9.400051E+04  8.260706E-01    1 
 5.000000E-01  5.000000E-01  1.850000E+00  9.302508E+04  7.925358E-01    1 
 5.000000E-01  5.000000E-01  1.950000E+00  9.205041E+04  7.598799E-01    1 
 5.000000E-01  5.000000E-01  2.050000E+00  9.107669E+04  7.285446E-01    1 
 5.000000E-01  5.000000E-01  2.150000E+00  9.010418E+04  6.987947E-01    1 
 5.000000E-01  5.000000E-01  2.250000E+00  8.913318E+04  6.707641E-01    1 
 5.000000E-01  5.000000E-01  2.350000E+00  8.816403E+04  6.444942E-01    1 
 5.000000E-01  5.000000E-01  2.450000E+00  8.719713E+04  6.199649E-01    1 
 5.000000E-01  5.000000E-01  2.550000E+00  8.623296E+04  5.971164E-01    1 
 5.000000E-01  5.000000E-01  2.650000E+00  8.527205E+04  5.758660E-01    1 
 5.000000E-01  5.000000E-01  2.750000E+00  8.431500E+04  5.561187E-01    1 
 5.000000E-01  5.000000E-01  2.850000E+00  8.336249E+04  5.377752E-01    1 
 5.000000E-01  5.000000E-01  2.950000E+00  8.241529E+04  5.207366E-01    1 
 5.000000E-01  5.000000E-01  3.050000E+00  8.147421E+04  5.049071E-01    1 
 5.000000E-01  5.000000E-01  3.150000E+00  8.054019E+04  4.901964E-01    1 
 5.000000E-01  5.000000E-01  3.250000E+00  7.961419E+04  4.765198E-01    1 
 5.000000E-01  5.000000E-01  3.350000E+00  7.869727E+04  4.637992E-01    1 
 5.000000E-01  5.000000E-01  3.450000E+00  7.779057E+04  4.519629E-01    1 
 5.000000E-01  5.000000E-01  3.550000E+00  7.689525E+04  4.409451E-01    1 
 5.000000E-01  5.000000E-01  3.650000E+00  7.601256E+04  4.306858E-01    1 
 5.000000E-01  5.000000E-01  3.750000E+00  7.514376E+04  4.211303E-01    1 
 5.000000E-01  5.000000E-01  3.850000E+00  7.429015E+04  4.122285E-01    1 
 5.000000E-01  5.000000E-01  3.950000E+00  7.345303E+04  4.039350E-01    1 
 5.000000E-01  5.000000E-01  4.050000E+00  7.263371E+04  3.962081E-01    1 
 5.000000E-01  5.000000E-01  4.150000E+00  7.183345E+04  3.890096E-01    1 
 5.000000E-01  5.000000E-01  4.250000E+00  7.105349E+04  3.823045E-01    1 
 5.000000E-01  5.000000E-01  4.350000E+00  7.029499E+04  3.760604E-01    1 
 5.000000E-01  5.000000E-01  4.450000E+00  6.955905E+04  3.702477E-01    1 
 5.000000E-01  5.000000E-01  4.550000E+00  6.884667E+04  3.648386E-01    1 
 5.000000E-01  5.000000E-01  4.650000E+00  6.815873E+04  3.598074E-01    1 
 5.000000E-01  5.000000E-01  4.750000E+00  6.749598E+04  3.551303E-01    1 
 5.000000E-01  5.000000E-01  4.850000E+00  6.685906E+04  3.507848E-01    1 
 5.000000E-01  5.000000E-01  4.950000E+00  6.624843E+04  3.467499E-01    1 
 5.000000E-01  5.000000E-01  5.050000E+00  6.566444E+04  3.430059E-01    1 
 5.000000E-01  5.000000E-01  5.150000E+00  6.510725E+04  3.395342E-01    1 
 5.000000E-01  5.000000E-01  5.250000E+00  6.457691E+04  3.363172E-01    1 
 5.000000E-01  5.000000E-01  5.350000E+00  6.407329E+04  3.333384E-01    1 
 5.000000E-01  5.000000E-01  5.450000E+00  6.359613E+04  3.305823E-01    1 
 5.000000E-01  5.000000E-01  5.550000E+00  6.314505E+04  3.280339E-01    1 
 5.000000E-01  5.000000E-01  5.650000E+00  6.271955E+04  3.256794E-01    1 
 5.000000E-01  5.000000E-01  5.750000E+00  6.231900E+04  3.235055E-01    1 
 5.000000E-01  5.000000E-01  5.850000E+00  6.194270E+04  3.214999E-01    1 
 5.000000E-01  5.000000E-01  5.950000E+00  6.158985E+04  3.196506E-01    1 
 5.000000E-01  5.000000E-01  6.050000E+00  6.125962E+04  3.179467E-01    1 
 5.000000E-01  5.000000E-01  6.150000E+00  6.095108E+04  3.163778E-01    1 
 5.000000E-01  5.000000E-01  6.250000E+00  6.066328E+04  3.149340E-01    1 
 5.000000E-01  5.000000E-01  6.350000E+00  6.039527E+04  3.136061E-01    1 
 5.000000E-01  5.000000E-01  6.450000E+00  6.014604E+04  3.123855E-01    1 
 5.000000E-01  5.000000E-01  6.550000E+00  5.991461E+04  3.112641E-01    1 
 5.000000E-01  5.000000E-01  6.650000E+00  5.969999E+04  3.102344E-01    1 
 5.000000E-01  5.000000E-01  6.750000E+00  5.950120E+04  3.092893E-01    1 
 5.000000E-01  5.000000E-01  6.850000E+00  5.931729E+04  3.084223E-01    1 
 5.000000E-01  5.000000E-01  6.950000E+00  5.914732E+04  3.076271E-01    1 
 5.000000E-01  5.000000E-01  7.050000E+00  5.899040E+04  3.068983E-01    1 
 5.000000E-01  5.000000E-01  7.150000E+00  5.884566E+04  3.062304E-01    1 
 5.000000E-01  5.000000E-01  7.250000E+00  5.871227E+04  3.056186E-01    1 
 5.000000E-01  5.000000E-01  7.350000E+00  5.858944E+04  3.050583E-01    1 
 5.000000E-01  5.000000E-01  7.450000E+00  5.847642E+04  3.045454E-01    1 
 5.000000E-01  5.000000E-01  7.550000E+00  5.837249E+04  3.040760E-01    1 
 5.000000E-01  5.000000E-01  7.650000E+00  5.827699E+04  3.036464E-01    1 
 5.000000E-01  5.000000E-01  7.750000E+00  5.818928E+04  3.032535E-01    1 
 5.000000E-01  5.000000E-01  7.850000E+00  5.810878E+04  3.028941E-01    1 
 5.000000E-01  5.000000E-01  7.950000E+00  5.803492E+04  3.025655E-01    1 
 5.000000E-01  5.000000E-01  8.050000E+00  5.796719E+04  3.022651E-01    1 
 5.000000E-01  5.000000E-01  8.150000E+00  5.790510E+04  3.019904E-01    1 
 5.000000E-01  5.000000E-01  8.250000E+00  5.784822E+04  3.017395E-01    1 
 5.000000E-01  5.000000E-01  8.350000E+00  5.779612E+04  3.015101E-01    1 
 5.000000E-01  5.000000E-01  8.450000E+00  5.774841E+04  3.013005E-01    1 
 5.000000E-01  5.000000E-01  8.550000E+00  5.770474E+04  3.011091E-01    1 
 5.000000E-01  5.000000E-01  8.650000E+00  5.766478E+04  3.009342E-01    1 
 5.000000E-01  5.000000E-01  8.750000E+00  5.762822E+04  3.007744E-01    1 
 5.000000E-01  5.000000E-01  8.850000E+00  5.759478E+04  3.006285E-01    1 
 5.000000E-01  5.000000E-01  8.950000E+00  5.756420E+04  3.004953E-01    1 
 5.000000E-01  5.000000E-01  9.050000E+00  5.753624E+04  3.003736E-01    1 
 5.000000E-01  5.000000E-01  9.150000E+00  5.751068E+04  3.002625E-01    1 
 5.000000E-01  5.000000E-01  9.250000E+00  5.748732E+04  3.001611E-01    1 
 5.000000E-01  5.000000E-01  9.350000E+00  5.746597E+04  3.000685E-01    1 
 5.000000E-01  5.000000E-01  9.450000E+00  5.744647E+04  2.999839E-01    1 
 5.000000E-01  5.000000E-01  9.550000E+00  5.742865E+04  2.999067E-01    1 
 5.000000E-01  5.000000E-01  9.650000E+00  5.741237E+04  2.998363E-01    1 
 5.000000E-01  5.000000E-01  9.750000E+00  5.739750E+04  2.997720E-01    1 
 5.000000E-01  5.000000E-01  9.850000E+00  5.738392E+04  2.997133E-01    1 
 5.000000E-01  5.000000E-01  9.950000E+00  5.737152E+04  2.996597E-01    1 
