TITLE = "  1.00000E+00 [y]"
VARIABLES="X [m]","Y [m]","Z [m]","Liquid Pressure [Pa]","Liquid Saturation","Material ID"
ZONE T="1.00000E+00", STRANDID=1, SOLUTIONTIME=1.00000E+00, I=1, J=1, K=100, DATAPACKING=POINT
 5.000000E-01  5.000000E-01  5.000000E-02  1.106151E+05  1.000000E+00    2 
 5.000000E-01  5.000000E-01  1.500000E-01  1.096373E+05  1.000000E+00    2 
 5.000000E-01  5.000000E-01  2.500000E-01  1.086595E+05  1.000000E+00    2 
 5.000000E-01  5.000000E-01  3.500000E-01  1.076817E+05  1.000000E+00    2 
 5.000000E-01  5.000000E-01  4.500000E-01  1.067040E+05  1.000000E+00    2 
 5.000000E-01  5.000000E-01  5.500000E-01  1.057262E+05  1.000000E+00    2 
 5.000000E-01  5.000000E-01  6.500000E-01  1.047484E+05  1.000000E+00    2 
 5.000000E-01  5.000000E-01  7.500000E-01  1.037706E+05  1.000000E+00    2 
 5.000000E-01  5.000000E-01  8.500000E-01  1.027928E+05  1.000000E+00    2 
 5.000000E-01  5.000000E-01  9.500000E-01  1.018150E+05  1.000000E+00    2 
 5.000000E-01  5.000000E-01  1.050000E+00  1.008373E+05  9.983101E-01    2 
 5.000000E-01  5.000000E-01  1.150000E+00  9.985954E+04  9.744397E-01    2 
 5.000000E-01  5.000000E-01  1.250000E+00  9.888190E+04  9.159761E-01    2 
 5.000000E-01  5.000000E-01  1.350000E+00  9.790445E+04  8.306573E-01    2 
 5.000000E-01  5.000000E-01  1.450000E+00  9.692738E+04  7.348248E-01    2 
 5.000000E-01  5.000000E-01  1.550000E+00  9.595106E+04  6.423194E-01    2 
 5.000000E-01  5.000000E-01  1.650000E+00  9.497611E+04  5.603465E-01    2 
 5.000000E-01  5.000000E-01  1.750000E+00  9.400358E+04  4.908964E-01    2 
 5.000000E-01  5.000000E-01  1.850000E+00  9.303513E+04  4.332815E-01    2 
 5.000000E-01  5.000000E-01  1.950000E+00  9.207322E+04  3.858584E-01    2 
 5.000000E-01  5.000000E-01  2.050000E+00  9.112134E+04  3.468652E-01    2 
 5.000000E-01  5.000000E-01  2.150000E+00  9.018418E+04  3.147401E-01    2 
 5.000000E-01  5.000000E-01  2.250000E+00  8.926775E+04  2.881984E-01    2 
 5.000000E-01  5.000000E-01  2.350000E+00  8.837928E+04  2.662158E-01    2 
 5.000000E-01  5.000000E-01  2.450000E+00  8.752693E+04  2.479826E-01    2 
 5.000000E-01  5.000000E-01  2.550000E+00  8.671920E+04  2.328562E-01    2 
 5.000000E-01  5.000000E-01  2.650000E+00  8.596419E+04  2.203192E-01    2 
 5.000000E-01  5.000000E-01  2.750000E+00  8.526872E+04  2.099479E-01    2 
 5.000000E-01  5.000000E-01  2.850000E+00  8.463753E+04  2.013883E-01    2 
 5.000000E-01  5.000000E-01  2.950000E+00  8.407279E+04  1.943402E-01    2 
 5.000000E-01  5.000000E-01  3.050000E+00  8.357402E+04  1.885471E-01    2 
 5.000000E-01  5.000000E-01  3.150000E+00  8.313831E+04  1.837891E-01    2 
 5.000000E-01  5.000000E-01  3.250000E+00  8.276089E+04  1.798786E-01    2 
 5.000000E-01  5.000000E-01  3.350000E+00  8.243574E+04  1.766567E-01    2 
 5.000000E-01  5.000000E-01  3.450000E+00  8.215626E+04  1.739902E-01    2 
 5.000000E-01  5.000000E-01  3.550000E+00  8.191582E+04  1.717686E-01    2 
 5.000000E-01  5.000000E-01  3.650000E+00  8.170808E+04  1.699011E-01    2 
 5.000000E-01  5.000000E-01  3.750000E+00  8.152730E+04  1.683137E-01    2 
 5.000000E-01  5.000000E-01  3.850000E+00  8.136842E+04  1.669468E-01    2 
 5.000000E-01  5.000000E-01  3.950000E+00  8.122710E+04  1.657524E-01    2 
 5.000000E-01  5.000000E-01  4.050000E+00  8.109967E+04  1.646925E-01    2 
 5.000000E-01  5.000000E-01  4.150000E+00  8.098310E+04  1.637367E-01    2 
 5.000000E-01  5.000000E-01  4.250000E+00  8.087487E+04  1.628610E-01    2 
 5.000000E-01  5.000000E-01  4.350000E+00  8.077297E+04  1.620465E-01    2 
 5.000000E-01  5.000000E-01  4.450000E+00  8.067574E+04  1.612783E-01    2 
 5.000000E-01  5.000000E-01  4.550000E+00  8.058185E+04  1.605446E-01    2 
 5.000000E-01  5.000000E-01  4.650000E+00  8.049023E+04  1.598363E-01    2 
 5.000000E-01  5.000000E-01  4.750000E+00  8.040003E+04  1.591461E-01    2 
 5.000000E-01  5.000000E-01  4.850000E+00  8.031053E+04  1.584683E-01    2 
 5.000000E-01  5.000000E-01  4.950000E+00  8.022118E+04  1.577986E-01    2 
 5.000000E-01  5.000000E-01  5.050000E+00  7.926535E+04  4.715874E-01    1 
 5.000000E-01  5.000000E-01  5.150000E+00  7.832079E+04  4.587983E-01    1 
 5.000000E-01  5.000000E-01  5.250000E+00  7.738050E+04  4.468372E-01    1 
 5.000000E-01  5.000000E-01  5.350000E+00  7.644483E+04  4.356380E-01    1 
 5.000000E-01  5.000000E-01  5.450000E+00  7.551412E+04  4.251405E-01    1 
 5.000000E-01  5.000000E-01  5.550000E+00  7.458873E+04  4.152895E-01    1 
 5.000000E-01  5.000000E-01  5.650000E+00  7.366902E+04  4.060351E-01    1 
 5.000000E-01  5.000000E-01  5.750000E+00  7.275531E+04  3.973315E-01    1 
 5.000000E-01  5.000000E-01  5.850000E+00  7.184796E+04  3.891372E-01    1 
 5.000000E-01  5.000000E-01  5.950000E+00  7.094729E+04  3.814142E-01    1 
 5.000000E-01  5.000000E-01  6.050000E+00  7.005360E+04  3.741279E-01    1 
 5.000000E-01  5.000000E-01  6.150000E+00  6.916719E+04  3.672465E-01    1 
 5.000000E-01  5.000000E-01  6.250000E+00  6.828831E+04  3.607412E-01    1 
 5.000000E-01  5.000000E-01  6.350000E+00  6.741721E+04  3.545851E-01    1 
 5.000000E-01  5.000000E-01  6.450000E+00  6.655408E+04  3.487539E-01    1 
 5.000000E-01  5.000000E-01  6.550000E+00  6.569909E+04  3.432250E-01    1 
 5.000000E-01  5.000000E-01  6.650000E+00  6.485236E+04  3.379776E-01    1 
 5.000000E-01  5.000000E-01  6.750000E+00  6.401396E+04  3.329923E-01    1 
 5.000000E-01  5.000000E-01  6.850000E+00  6.318392E+04  3.282513E-01    1 
 5.000000E-01  5.000000E-01  6.950000E+00  6.236221E+04  3.237381E-01    1 
 5.000000E-01  5.000000E-01  7.050000E+00  6.154874E+04  3.194371E-01    1 
 5.000000E-01  5.000000E-01  7.150000E+00  6.074337E+04  3.153339E-01    1 
 5.000000E-01  5.000000E-01  7.250000E+00  5.994589E+04  3.114150E-01    1 
 5.000000E-01  5.000000E-01  7.350000E+00  5.915603E+04  3.076677E-01    1 
 5.000000E-01  5.000000E-01  7.450000E+00  5.837345E+04  3.040803E-01    1 
 5.000000E-01  5.000000E-01  7.550000E+00  5.759773E+04  3.006414E-01    1 
 5.000000E-01  5.000000E-01  7.650000E+00  5.682839E+04  2.973405E-01    1 
 5.000000E-01  5.000000E-01  7.750000E+00  5.606489E+04  2.941678E-01    1 
 5.000000E-01  5.000000E-01  7.850000E+00  5.530660E+04  2.911137E-01    1 
 5.000000E-01  5.000000E-01  7.950000E+00  5.455282E+04  2.881694E-01    1 
 5.000000E-01  5.000000E-01  8.050000E+00  5.380277E+04  2.853264E-01    1 
 5.000000E-01  5.000000E-01  8.150000E+00  5.305561E+04  2.825767E-01    1 
 5.000000E-01  5.000000E-01  8.250000E+00  5.231042E+04  2.799126E-01    1 
 5.000000E-01  5.000000E-01  8.350000E+00  5.156618E+04  2.773269E-01    1 
 5.000000E-01  5.000000E-01  8.450000E+00  5.082181E+04  2.748126E-01    1 
 5.000000E-01  5.000000E-01  8.550000E+00  5.007616E+04  2.723631E-01    1 
 5.000000E-01  5.000000E-01  8.650000E+00  4.932797E+04  2.699720E-01    1 
 5.000000E-01  5.000000E-01  8.750000E+00  4.857591E+04  2.676333E-01    1 
 5.000000E-01  5.000000E-01  8.850000E+00  4.781854E+04  2.653412E-01    1 
 5.000000E-01  5.000000E-01  8.950000E+00  4.705434E+04  2.630899E-01    1 
 5.000000E-01  5.000000E-01  9.050000E+00  4.628169E+04  2.608743E-01    1 
 5.000000E-01  5.000000E-01  9.150000E+00  4.549884E+04  2.586889E-01    1 
 5.000000E-01  5.000000E-01  9.250000E+00  4.470392E+04  2.565289E-01    1 
 5.000000E-01  5.000000E-01  9.350000E+00  4.389495E+04  2.543894E-01    1 
 5.000000E-01  5.000000E-01  9.450000E+00  4.306978E+04  2.522655E-01    1 
 5.000000E-01  5.000000E-01  9.550000E+00  4.222610E+04  2.501527E-01    1 
 5.000000E-01  5.000000E-01  9.650000E+00  4.136144E+04  2.480466E-01    1 
 5.000000E-01  5.000000E-01  9.750000E+00  4.047311E+04  2.459426E-01    1 
 5.000000E-01  5.000000E-01  9.850000E+00  3.955819E+04  2.438364E-01    1 
 5.000000E-01  5.000000E-01  9.950000E+00  3.861352E+04  2.417238E-01    1 
