TITLE = "  1.00000E-01 [y]"
VARIABLES="X [m]","Y [m]","Z [m]","Liquid Pressure [Pa]","Liquid Saturation","Material ID"
ZONE T="1.00000E-01", STRANDID=1, SOLUTIONTIME=1.00000E-01, I=1, J=1, K=100, DATAPACKING=POINT
 5.000000E-01  5.000000E-01  5.000000E-02  1.106150E+05  1.000000E+00    1 
 5.000000E-01  5.000000E-01  1.500000E-01  1.096371E+05  1.000000E+00    1 
 5.000000E-01  5.000000E-01  2.500000E-01  1.086592E+05  1.000000E+00    1 
 5.000000E-01  5.000000E-01  3.500000E-01  1.076813E+05  1.000000E+00    1 
 5.000000E-01  5.000000E-01  4.500000E-01  1.067034E+05  1.000000E+00    1 
 5.000000E-01  5.000000E-01  5.500000E-01  1.057255E+05  1.000000E+00    1 
 5.000000E-01  5.000000E-01  6.500000E-01  1.047476E+05  1.000000E+00    1 
 5.000000E-01  5.000000E-01  7.500000E-01  1.037697E+05  1.000000E+00    1 
 5.000000E-01  5.000000E-01  8.500000E-01  1.027918E+05  1.000000E+00    1 
 5.000000E-01  5.000000E-01  9.500000E-01  1.018139E+05  1.000000E+00    1 
 5.000000E-01  5.000000E-01  1.050000E+00  1.008361E+05  9.989261E-01    1 
 5.000000E-01  5.000000E-01  1.150000E+00  9.985816E+04  9.904712E-01    1 
 5.000000E-01  5.000000E-01  1.250000E+00  9.888026E+04  9.742532E-01    1 
 5.000000E-01  5.000000E-01  1.350000E+00  9.790237E+04  9.515064E-01    1 
 5.000000E-01  5.000000E-01  1.450000E+00  9.692447E+04  9.237675E-01    1 
 5.000000E-01  5.000000E-01  1.550000E+00  9.594658E+04  8.926288E-01    1 
 5.000000E-01  5.000000E-01  1.650000E+00  9.496868E+04  8.595470E-01    1 
 5.000000E-01  5.000000E-01  1.750000E+00  9.399079E+04  8.257340E-01    1 
 5.000000E-01  5.000000E-01  1.850000E+00  9.301289E+04  7.921211E-01    1 
 5.000000E-01  5.000000E-01  1.950000E+00  9.203500E+04  7.593731E-01    1 
 5.000000E-01  5.000000E-01  2.050000E+00  9.105710E+04  7.279294E-01    1 
 5.000000E-01  5.000000E-01  2.150000E+00  9.007921E+04  6.980524E-01    1 
 5.000000E-01  5.000000E-01  2.250000E+00  8.910131E+04  6.698731E-01    1 
 5.000000E-01  5.000000E-01  2.350000E+00  8.812342E+04  6.434305E-01    1 
 5.000000E-01  5.000000E-01  2.450000E+00  8.714552E+04  6.187018E-01    1 
 5.000000E-01  5.000000E-01  2.550000E+00  8.616763E+04  5.956246E-01    1 
 5.000000E-01  5.000000E-01  2.650000E+00  8.518974E+04  5.741134E-01    1 
 5.000000E-01  5.000000E-01  2.750000E+00  8.421184E+04  5.540707E-01    1 
 5.000000E-01  5.000000E-01  2.850000E+00  8.323395E+04  5.353947E-01    1 
 5.000000E-01  5.000000E-01  2.950000E+00  8.225606E+04  5.179836E-01    1 
 5.000000E-01  5.000000E-01  3.050000E+00  8.127817E+04  5.017395E-01    1 
 5.000000E-01  5.000000E-01  3.150000E+00  8.030027E+04  4.865692E-01    1 
 5.000000E-01  5.000000E-01  3.250000E+00  7.932238E+04  4.723860E-01    1 
 5.000000E-01  5.000000E-01  3.350000E+00  7.834450E+04  4.591095E-01    1 
 5.000000E-01  5.000000E-01  3.450000E+00  7.736661E+04  4.466659E-01    1 
 5.000000E-01  5.000000E-01  3.550000E+00  7.638872E+04  4.349875E-01    1 
 5.000000E-01  5.000000E-01  3.650000E+00  7.541084E+04  4.240128E-01    1 
 5.000000E-01  5.000000E-01  3.750000E+00  7.443295E+04  4.136856E-01    1 
 5.000000E-01  5.000000E-01  3.850000E+00  7.345507E+04  4.039547E-01    1 
 5.000000E-01  5.000000E-01  3.950000E+00  7.247719E+04  3.947738E-01    1 
 5.000000E-01  5.000000E-01  4.050000E+00  7.149932E+04  3.861007E-01    1 
 5.000000E-01  5.000000E-01  4.150000E+00  7.052144E+04  3.778971E-01    1 
 5.000000E-01  5.000000E-01  4.250000E+00  6.954358E+04  3.701279E-01    1 
 5.000000E-01  5.000000E-01  4.350000E+00  6.856571E+04  3.627616E-01    1 
 5.000000E-01  5.000000E-01  4.450000E+00  6.758785E+04  3.557690E-01    1 
 5.000000E-01  5.000000E-01  4.550000E+00  6.661000E+04  3.491239E-01    1 
 5.000000E-01  5.000000E-01  4.650000E+00  6.563215E+04  3.428021E-01    1 
 5.000000E-01  5.000000E-01  4.750000E+00  6.465432E+04  3.367815E-01    1 
 5.000000E-01  5.000000E-01  4.850000E+00  6.367649E+04  3.310420E-01    1 
 5.000000E-01  5.000000E-01  4.950000E+00  6.269868E+04  3.255651E-01    1 
 5.000000E-01  5.000000E-01  5.050000E+00  6.172088E+04  3.203338E-01    1 
 5.000000E-01  5.000000E-01  5.150000E+00  6.074310E+04  3.153325E-01    1 
 5.000000E-01  5.000000E-01  5.250000E+00  5.976535E+04  3.105469E-01    1 
 5.000000E-01  5.000000E-01  5.350000E+00  5.878762E+04  3.059638E-01    1 
 5.000000E-01  5.000000E-01  5.450000E+00  5.780994E+04  3.015709E-01    1 
 5.000000E-01  5.000000E-01  5.550000E+00  5.683230E+04  2.973570E-01    1 
 5.000000E-01  5.000000E-01  5.650000E+00  5.585471E+04  2.933118E-01    1 
 5.000000E-01  5.000000E-01  5.750000E+00  5.487721E+04  2.894255E-01    1 
 5.000000E-01  5.000000E-01  5.850000E+00  5.389980E+04  2.856894E-01    1 
 5.000000E-01  5.000000E-01  5.950000E+00  5.292250E+04  2.820952E-01    1 
 5.000000E-01  5.000000E-01  6.050000E+00  5.194537E+04  2.786352E-01    1 
 5.000000E-01  5.000000E-01  6.150000E+00  5.096843E+04  2.753023E-01    1 
 5.000000E-01  5.000000E-01  6.250000E+00  4.999175E+04  2.720900E-01    1 
 5.000000E-01  5.000000E-01  6.350000E+00  4.901541E+04  2.689923E-01    1 
 5.000000E-01  5.000000E-01  6.450000E+00  4.803949E+04  2.660035E-01    1 
 5.000000E-01  5.000000E-01  6.550000E+00  4.706414E+04  2.631184E-01    1 
 5.000000E-01  5.000000E-01  6.650000E+00  4.608953E+04  2.603324E-01    1 
 5.000000E-01  5.000000E-01  6.750000E+00  4.511588E+04  2.576411E-01    1 
 5.000000E-01  5.000000E-01  6.850000E+00  4.414350E+04  2.550406E-01    1 
 5.000000E-01  5.000000E-01  6.950000E+00  4.317280E+04  2.525275E-01    1 
 5.000000E-01  5.000000E-01  7.050000E+00  4.220431E+04  2.500989E-01    1 
 5.000000E-01  5.000000E-01  7.150000E+00  4.123877E+04  2.477525E-01    1 
 5.000000E-01  5.000000E-01  7.250000E+00  4.027714E+04  2.454864E-01    1 
 5.000000E-01  5.000000E-01  7.350000E+00  3.932072E+04  2.432996E-01    1 
 5.000000E-01  5.000000E-01  7.450000E+00  3.837127E+04  2.411919E-01    1 
 5.000000E-01  5.000000E-01  7.550000E+00  3.743115E+04  2.391645E-01    1 
 5.000000E-01  5.000000E-01  7.650000E+00  3.650351E+04  2.372196E-01    1 
 5.000000E-01  5.000000E-01  7.750000E+00  3.559262E+04  2.353614E-01    1 
 5.000000E-01  5.000000E-01  7.850000E+00  3.470415E+04  2.335962E-01    1 
 5.000000E-01  5.000000E-01  7.950000E+00  3.384568E+04  2.319334E-01    1 
 5.000000E-01  5.000000E-01  8.050000E+00  3.302724E+04  2.303857E-01    1 
 5.000000E-01  5.000000E-01  8.150000E+00  3.226192E+04  2.289707E-01    1 
 5.000000E-01  5.000000E-01  8.250000E+00  3.156662E+04  2.277112E-01    1 
 5.000000E-01  5.000000E-01  8.350000E+00  3.096265E+04  2.266368E-01    1 
 5.000000E-01  5.000000E-01  8.450000E+00  3.047611E+04  2.257842E-01    1 
 5.000000E-01  5.000000E-01  8.550000E+00  3.013771E+04  2.251978E-01    1 
 5.000000E-01  5.000000E-01  8.650000E+00  2.998153E+04  2.249290E-01    1 
 5.000000E-01  5.000000E-01  8.750000E+00  3.004246E+04  2.250338E-01    1 
 5.000000E-01  5.000000E-01  8.850000E+00  3.035188E+04  2.255683E-01    1 
 5.000000E-01  5.000000E-01  8.950000E+00  3.093217E+04  2.265830E-01    1 
 5.000000E-01  5.000000E-01  9.050000E+00  3.179087E+04  2.281147E-01    1 
 5.000000E-01  5.000000E-01  9.150000E+00  3.291642E+04  2.301789E-01    1 
 5.000000E-01  5.000000E-01  9.250000E+00  3.427709E+04  2.327638E-01    1 
 5.000000E-01  5.000000E-01  9.350000E+00  3.582395E+04  2.358286E-01    1 
 5.000000E-01  5.000000E-01  9.450000E+00  3.749729E+04  2.393053E-01    1 
 5.000000E-01  5.000000E-01  9.550000E+00  3.923463E+04  2.431059E-01    1 
 5.000000E-01  5.000000E-01  9.650000E+00  4.097810E+04  2.471313E-01    1 
 5.000000E-01  5.000000E-01  9.750000E+00  4.267962E+04  2.512812E-01    1 
 5.000000E-01  5.000000E-01  9.850000E+00  4.430331E+04  2.554621E-01    1 
 5.000000E-01  5.000000E-01  9.950000E+00  4.582541E+04  2.595934E-01    1 
