TITLE = "  0.00000E+00 [y]"
VARIABLES="X [m]","Y [m]","Z [m]","Liquid Pressure [Pa]","Liquid Saturation","Material ID"
ZONE T="0.00000E+00", STRANDID=1, SOLUTIONTIME=0.00000E+00, I=1, J=1, K=100, DATAPACKING=POINT
 5.000000E-01  5.000000E-01  5.000000E-02  1.106150E+05  1.000000E+00    2 
 5.000000E-01  5.000000E-01  1.500000E-01  1.096371E+05  1.000000E+00    2 
 5.000000E-01  5.000000E-01  2.500000E-01  1.086592E+05  1.000000E+00    2 
 5.000000E-01  5.000000E-01  3.500000E-01  1.076813E+05  1.000000E+00    2 
 5.000000E-01  5.000000E-01  4.500000E-01  1.067034E+05  1.000000E+00    2 
 5.000000E-01  5.000000E-01  5.500000E-01  1.057255E+05  1.000000E+00    2 
 5.000000E-01  5.000000E-01  6.500000E-01  1.047476E+05  1.000000E+00    2 
 5.000000E-01  5.000000E-01  7.500000E-01  1.037697E+05  1.000000E+00    2 
 5.000000E-01  5.000000E-01  8.500000E-01  1.027918E+05  1.000000E+00    2 
 5.000000E-01  5.000000E-01  9.500000E-01  1.018139E+05  1.000000E+00    2 
 5.000000E-01  5.000000E-01  1.050000E+00  1.008361E+05  9.982995E-01    2 
 5.000000E-01  5.000000E-01  1.150000E+00  9.985816E+04  9.743814E-01    2 
 5.000000E-01  5.000000E-01  1.250000E+00  9.888026E+04  9.158515E-01    2 
 5.000000E-01  5.000000E-01  1.350000E+00  9.790237E+04  8.304583E-01    2 
 5.000000E-01  5.000000E-01  1.450000E+00  9.692448E+04  7.345392E-01    2 
 5.000000E-01  5.000000E-01  1.550000E+00  9.594658E+04  6.419161E-01    2 
 5.000000E-01  5.000000E-01  1.650000E+00  9.496869E+04  5.597699E-01    2 
 5.000000E-01  5.000000E-01  1.750000E+00  9.399080E+04  4.900638E-01    2 
 5.000000E-01  5.000000E-01  1.850000E+00  9.301291E+04  4.320822E-01    2 
 5.000000E-01  5.000000E-01  1.950000E+00  9.203501E+04  3.841520E-01    2 
 5.000000E-01  5.000000E-01  2.050000E+00  9.105712E+04  3.444806E-01    2 
 5.000000E-01  5.000000E-01  2.150000E+00  9.007923E+04  3.114753E-01    2 
 5.000000E-01  5.000000E-01  2.250000E+00  8.910134E+04  2.838224E-01    2 
 5.000000E-01  5.000000E-01  2.350000E+00  8.812345E+04  2.604733E-01    2 
 5.000000E-01  5.000000E-01  2.450000E+00  8.714556E+04  2.406018E-01    2 
 5.000000E-01  5.000000E-01  2.550000E+00  8.616768E+04  2.235593E-01    2 
 5.000000E-01  5.000000E-01  2.650000E+00  8.518979E+04  2.088353E-01    2 
 5.000000E-01  5.000000E-01  2.750000E+00  8.421190E+04  1.960263E-01    2 
 5.000000E-01  5.000000E-01  2.850000E+00  8.323401E+04  1.848111E-01    2 
 5.000000E-01  5.000000E-01  2.950000E+00  8.225612E+04  1.749324E-01    2 
 5.000000E-01  5.000000E-01  3.050000E+00  8.127824E+04  1.661823E-01    2 
 5.000000E-01  5.000000E-01  3.150000E+00  8.030035E+04  1.583917E-01    2 
 5.000000E-01  5.000000E-01  3.250000E+00  7.932247E+04  1.514221E-01    2 
 5.000000E-01  5.000000E-01  3.350000E+00  7.834458E+04  1.451591E-01    2 
 5.000000E-01  5.000000E-01  3.450000E+00  7.736670E+04  1.395078E-01    2 
 5.000000E-01  5.000000E-01  3.550000E+00  7.638881E+04  1.343886E-01    2 
 5.000000E-01  5.000000E-01  3.650000E+00  7.541093E+04  1.297349E-01    2 
 5.000000E-01  5.000000E-01  3.750000E+00  7.443304E+04  1.254900E-01    2 
 5.000000E-01  5.000000E-01  3.850000E+00  7.345516E+04  1.216058E-01    2 
 5.000000E-01  5.000000E-01  3.950000E+00  7.247728E+04  1.180413E-01    2 
 5.000000E-01  5.000000E-01  4.050000E+00  7.149939E+04  1.147610E-01    2 
 5.000000E-01  5.000000E-01  4.150000E+00  7.052151E+04  1.117344E-01    2 
 5.000000E-01  5.000000E-01  4.250000E+00  6.954363E+04  1.089351E-01    2 
 5.000000E-01  5.000000E-01  4.350000E+00  6.856575E+04  1.063400E-01    2 
 5.000000E-01  5.000000E-01  4.450000E+00  6.758787E+04  1.039290E-01    2 
 5.000000E-01  5.000000E-01  4.550000E+00  6.660999E+04  1.016844E-01    2 
 5.000000E-01  5.000000E-01  4.650000E+00  6.563211E+04  9.959058E-02    2 
 5.000000E-01  5.000000E-01  4.750000E+00  6.465423E+04  9.763387E-02    2 
 5.000000E-01  5.000000E-01  4.850000E+00  6.367635E+04  9.580206E-02    2 
 5.000000E-01  5.000000E-01  4.950000E+00  6.269847E+04  9.408430E-02    2 
 5.000000E-01  5.000000E-01  5.050000E+00  6.172060E+04  3.203323E-01    1 
 5.000000E-01  5.000000E-01  5.150000E+00  6.074272E+04  3.153306E-01    1 
 5.000000E-01  5.000000E-01  5.250000E+00  5.976484E+04  3.105445E-01    1 
 5.000000E-01  5.000000E-01  5.350000E+00  5.878696E+04  3.059607E-01    1 
 5.000000E-01  5.000000E-01  5.450000E+00  5.780909E+04  3.015671E-01    1 
 5.000000E-01  5.000000E-01  5.550000E+00  5.683121E+04  2.973524E-01    1 
 5.000000E-01  5.000000E-01  5.650000E+00  5.585334E+04  2.933062E-01    1 
 5.000000E-01  5.000000E-01  5.750000E+00  5.487546E+04  2.894187E-01    1 
 5.000000E-01  5.000000E-01  5.850000E+00  5.389759E+04  2.856811E-01    1 
 5.000000E-01  5.000000E-01  5.950000E+00  5.291971E+04  2.820851E-01    1 
 5.000000E-01  5.000000E-01  6.050000E+00  5.194184E+04  2.786229E-01    1 
 5.000000E-01  5.000000E-01  6.150000E+00  5.096397E+04  2.752873E-01    1 
 5.000000E-01  5.000000E-01  6.250000E+00  4.998609E+04  2.720718E-01    1 
 5.000000E-01  5.000000E-01  6.350000E+00  4.900822E+04  2.689699E-01    1 
 5.000000E-01  5.000000E-01  6.450000E+00  4.803035E+04  2.659760E-01    1 
 5.000000E-01  5.000000E-01  6.550000E+00  4.705248E+04  2.630845E-01    1 
 5.000000E-01  5.000000E-01  6.650000E+00  4.607461E+04  2.602905E-01    1 
 5.000000E-01  5.000000E-01  6.750000E+00  4.509673E+04  2.575890E-01    1 
 5.000000E-01  5.000000E-01  6.850000E+00  4.411886E+04  2.549758E-01    1 
 5.000000E-01  5.000000E-01  6.950000E+00  4.314099E+04  2.524465E-01    1 
 5.000000E-01  5.000000E-01  7.050000E+00  4.216313E+04  2.499973E-01    1 
 5.000000E-01  5.000000E-01  7.150000E+00  4.118526E+04  2.476245E-01    1 
 5.000000E-01  5.000000E-01  7.250000E+00  4.020739E+04  2.453247E-01    1 
 5.000000E-01  5.000000E-01  7.350000E+00  3.922952E+04  2.430944E-01    1 
 5.000000E-01  5.000000E-01  7.450000E+00  3.825165E+04  2.409307E-01    1 
 5.000000E-01  5.000000E-01  7.550000E+00  3.727378E+04  2.388307E-01    1 
 5.000000E-01  5.000000E-01  7.650000E+00  3.629592E+04  2.367917E-01    1 
 5.000000E-01  5.000000E-01  7.750000E+00  3.531805E+04  2.348110E-01    1 
 5.000000E-01  5.000000E-01  7.850000E+00  3.434019E+04  2.328862E-01    1 
 5.000000E-01  5.000000E-01  7.950000E+00  3.336232E+04  2.310150E-01    1 
 5.000000E-01  5.000000E-01  8.050000E+00  3.238446E+04  2.291952E-01    1 
 5.000000E-01  5.000000E-01  8.150000E+00  3.140659E+04  2.274248E-01    1 
 5.000000E-01  5.000000E-01  8.250000E+00  3.042873E+04  2.257017E-01    1 
 5.000000E-01  5.000000E-01  8.350000E+00  2.945086E+04  2.240242E-01    1 
 5.000000E-01  5.000000E-01  8.450000E+00  2.847300E+04  2.223905E-01    1 
 5.000000E-01  5.000000E-01  8.550000E+00  2.749514E+04  2.207989E-01    1 
 5.000000E-01  5.000000E-01  8.650000E+00  2.651727E+04  2.192477E-01    1 
 5.000000E-01  5.000000E-01  8.750000E+00  2.553941E+04  2.177356E-01    1 
 5.000000E-01  5.000000E-01  8.850000E+00  2.456155E+04  2.162610E-01    1 
 5.000000E-01  5.000000E-01  8.950000E+00  2.358369E+04  2.148225E-01    1 
 5.000000E-01  5.000000E-01  9.050000E+00  2.260583E+04  2.134190E-01    1 
 5.000000E-01  5.000000E-01  9.150000E+00  2.162797E+04  2.120491E-01    1 
 5.000000E-01  5.000000E-01  9.250000E+00  2.065011E+04  2.107116E-01    1 
 5.000000E-01  5.000000E-01  9.350000E+00  1.967225E+04  2.094054E-01    1 
 5.000000E-01  5.000000E-01  9.450000E+00  1.869439E+04  2.081295E-01    1 
 5.000000E-01  5.000000E-01  9.550000E+00  1.771653E+04  2.068828E-01    1 
 5.000000E-01  5.000000E-01  9.650000E+00  1.673867E+04  2.056643E-01    1 
 5.000000E-01  5.000000E-01  9.750000E+00  1.576081E+04  2.044731E-01    1 
 5.000000E-01  5.000000E-01  9.850000E+00  1.478296E+04  2.033083E-01    1 
 5.000000E-01  5.000000E-01  9.950000E+00  1.380510E+04  2.021690E-01    1 
