TITLE = "  5.00000E-01 [y]"
VARIABLES="X [m]","Y [m]","Z [m]","Liquid Pressure [Pa]","Liquid Saturation","Material ID"
ZONE T="5.00000E-01", STRANDID=1, SOLUTIONTIME=5.00000E-01, I=1, J=1, K=100, DATAPACKING=POINT
 5.000000E-01  5.000000E-01  5.000000E-02  1.106151E+05  1.000000E+00    2 
 5.000000E-01  5.000000E-01  1.500000E-01  1.096375E+05  1.000000E+00    2 
 5.000000E-01  5.000000E-01  2.500000E-01  1.086598E+05  1.000000E+00    2 
 5.000000E-01  5.000000E-01  3.500000E-01  1.076821E+05  1.000000E+00    2 
 5.000000E-01  5.000000E-01  4.500000E-01  1.067044E+05  1.000000E+00    2 
 5.000000E-01  5.000000E-01  5.500000E-01  1.057267E+05  1.000000E+00    2 
 5.000000E-01  5.000000E-01  6.500000E-01  1.047490E+05  1.000000E+00    2 
 5.000000E-01  5.000000E-01  7.500000E-01  1.037714E+05  1.000000E+00    2 
 5.000000E-01  5.000000E-01  8.500000E-01  1.027937E+05  1.000000E+00    2 
 5.000000E-01  5.000000E-01  9.500000E-01  1.018160E+05  1.000000E+00    2 
 5.000000E-01  5.000000E-01  1.050000E+00  1.008383E+05  9.983193E-01    2 
 5.000000E-01  5.000000E-01  1.150000E+00  9.986076E+04  9.744907E-01    2 
 5.000000E-01  5.000000E-01  1.250000E+00  9.888334E+04  9.160855E-01    2 
 5.000000E-01  5.000000E-01  1.350000E+00  9.790628E+04  8.308320E-01    2 
 5.000000E-01  5.000000E-01  1.450000E+00  9.692994E+04  7.350757E-01    2 
 5.000000E-01  5.000000E-01  1.550000E+00  9.595499E+04  6.426734E-01    2 
 5.000000E-01  5.000000E-01  1.650000E+00  9.498261E+04  5.608524E-01    2 
 5.000000E-01  5.000000E-01  1.750000E+00  9.401476E+04  4.916262E-01    2 
 5.000000E-01  5.000000E-01  1.850000E+00  9.305451E+04  4.343310E-01    2 
 5.000000E-01  5.000000E-01  1.950000E+00  9.210634E+04  3.873476E-01    2 
 5.000000E-01  5.000000E-01  2.050000E+00  9.117652E+04  3.489376E-01    2 
 5.000000E-01  5.000000E-01  2.150000E+00  9.027325E+04  3.175602E-01    2 
 5.000000E-01  5.000000E-01  2.250000E+00  8.940654E+04  2.919463E-01    2 
 5.000000E-01  5.000000E-01  2.350000E+00  8.858771E+04  2.710788E-01    2 
 5.000000E-01  5.000000E-01  2.450000E+00  8.782841E+04  2.541442E-01    2 
 5.000000E-01  5.000000E-01  2.550000E+00  8.713928E+04  2.404838E-01    2 
 5.000000E-01  5.000000E-01  2.650000E+00  8.652847E+04  2.295528E-01    2 
 5.000000E-01  5.000000E-01  2.750000E+00  8.600056E+04  2.208911E-01    2 
 5.000000E-01  5.000000E-01  2.850000E+00  8.555592E+04  2.141042E-01    2 
 5.000000E-01  5.000000E-01  2.950000E+00  8.519093E+04  2.088513E-01    2 
 5.000000E-01  5.000000E-01  3.050000E+00  8.489874E+04  2.048387E-01    2 
 5.000000E-01  5.000000E-01  3.150000E+00  8.467035E+04  2.018150E-01    2 
 5.000000E-01  5.000000E-01  3.250000E+00  8.449581E+04  1.995680E-01    2 
 5.000000E-01  5.000000E-01  3.350000E+00  8.436511E+04  1.979205E-01    2 
 5.000000E-01  5.000000E-01  3.450000E+00  8.426894E+04  1.967268E-01    2 
 5.000000E-01  5.000000E-01  3.550000E+00  8.419905E+04  1.958692E-01    2 
 5.000000E-01  5.000000E-01  3.650000E+00  8.414844E+04  1.952532E-01    2 
 5.000000E-01  5.000000E-01  3.750000E+00  8.411138E+04  1.948048E-01    2 
 5.000000E-01  5.000000E-01  3.850000E+00  8.408327E+04  1.944661E-01    2 
 5.000000E-01  5.000000E-01  3.950000E+00  8.406053E+04  1.941931E-01    2 
 5.000000E-01  5.000000E-01  4.050000E+00  8.404044E+04  1.939526E-01    2 
 5.000000E-01  5.000000E-01  4.150000E+00  8.402095E+04  1.937199E-01    2 
 5.000000E-01  5.000000E-01  4.250000E+00  8.400058E+04  1.934774E-01    2 
 5.000000E-01  5.000000E-01  4.350000E+00  8.397827E+04  1.932126E-01    2 
 5.000000E-01  5.000000E-01  4.450000E+00  8.395330E+04  1.929169E-01    2 
 5.000000E-01  5.000000E-01  4.550000E+00  8.392516E+04  1.925852E-01    2 
 5.000000E-01  5.000000E-01  4.650000E+00  8.389358E+04  1.922142E-01    2 
 5.000000E-01  5.000000E-01  4.750000E+00  8.385837E+04  1.918025E-01    2 
 5.000000E-01  5.000000E-01  4.850000E+00  8.381947E+04  1.913498E-01    2 
 5.000000E-01  5.000000E-01  4.950000E+00  8.377687E+04  1.908569E-01    2 
 5.000000E-01  5.000000E-01  5.050000E+00  8.283250E+04  5.280996E-01    1 
 5.000000E-01  5.000000E-01  5.150000E+00  8.190691E+04  5.120547E-01    1 
 5.000000E-01  5.000000E-01  5.250000E+00  8.098982E+04  4.971587E-01    1 
 5.000000E-01  5.000000E-01  5.350000E+00  8.008217E+04  4.833232E-01    1 
 5.000000E-01  5.000000E-01  5.450000E+00  7.918490E+04  4.704664E-01    1 
 5.000000E-01  5.000000E-01  5.550000E+00  7.829898E+04  4.585123E-01    1 
 5.000000E-01  5.000000E-01  5.650000E+00  7.742535E+04  4.473911E-01    1 
 5.000000E-01  5.000000E-01  5.750000E+00  7.656495E+04  4.370385E-01    1 
 5.000000E-01  5.000000E-01  5.850000E+00  7.571869E+04  4.273955E-01    1 
 5.000000E-01  5.000000E-01  5.950000E+00  7.488741E+04  4.184079E-01    1 
 5.000000E-01  5.000000E-01  6.050000E+00  7.407188E+04  4.100257E-01    1 
 5.000000E-01  5.000000E-01  6.150000E+00  7.327278E+04  4.022029E-01    1 
 5.000000E-01  5.000000E-01  6.250000E+00  7.249069E+04  3.948970E-01    1 
 5.000000E-01  5.000000E-01  6.350000E+00  7.172607E+04  3.880687E-01    1 
 5.000000E-01  5.000000E-01  6.450000E+00  7.097922E+04  3.816813E-01    1 
 5.000000E-01  5.000000E-01  6.550000E+00  7.025032E+04  3.757008E-01    1 
 5.000000E-01  5.000000E-01  6.650000E+00  6.953938E+04  3.700955E-01    1 
 5.000000E-01  5.000000E-01  6.750000E+00  6.884627E+04  3.648356E-01    1 
 5.000000E-01  5.000000E-01  6.850000E+00  6.817069E+04  3.598933E-01    1 
 5.000000E-01  5.000000E-01  6.950000E+00  6.751216E+04  3.552426E-01    1 
 5.000000E-01  5.000000E-01  7.050000E+00  6.687007E+04  3.508588E-01    1 
 5.000000E-01  5.000000E-01  7.150000E+00  6.624366E+04  3.467189E-01    1 
 5.000000E-01  5.000000E-01  7.250000E+00  6.563202E+04  3.428013E-01    1 
 5.000000E-01  5.000000E-01  7.350000E+00  6.503412E+04  3.390855E-01    1 
 5.000000E-01  5.000000E-01  7.450000E+00  6.444878E+04  3.355524E-01    1 
 5.000000E-01  5.000000E-01  7.550000E+00  6.387476E+04  3.321840E-01    1 
 5.000000E-01  5.000000E-01  7.650000E+00  6.331069E+04  3.289633E-01    1 
 5.000000E-01  5.000000E-01  7.750000E+00  6.275511E+04  3.258744E-01    1 
 5.000000E-01  5.000000E-01  7.850000E+00  6.220651E+04  3.229023E-01    1 
 5.000000E-01  5.000000E-01  7.950000E+00  6.166329E+04  3.200330E-01    1 
 5.000000E-01  5.000000E-01  8.050000E+00  6.112377E+04  3.172533E-01    1 
 5.000000E-01  5.000000E-01  8.150000E+00  6.058626E+04  3.145507E-01    1 
 5.000000E-01  5.000000E-01  8.250000E+00  6.004896E+04  3.119137E-01    1 
 5.000000E-01  5.000000E-01  8.350000E+00  5.951004E+04  3.093311E-01    1 
 5.000000E-01  5.000000E-01  8.450000E+00  5.896760E+04  3.067928E-01    1 
 5.000000E-01  5.000000E-01  8.550000E+00  5.841969E+04  3.042889E-01    1 
 5.000000E-01  5.000000E-01  8.650000E+00  5.786424E+04  3.018101E-01    1 
 5.000000E-01  5.000000E-01  8.750000E+00  5.729914E+04  2.993476E-01    1 
 5.000000E-01  5.000000E-01  8.850000E+00  5.672214E+04  2.968930E-01    1 
 5.000000E-01  5.000000E-01  8.950000E+00  5.613089E+04  2.944381E-01    1 
 5.000000E-01  5.000000E-01  9.050000E+00  5.552288E+04  2.919752E-01    1 
 5.000000E-01  5.000000E-01  9.150000E+00  5.489542E+04  2.894965E-01    1 
 5.000000E-01  5.000000E-01  9.250000E+00  5.424561E+04  2.869947E-01    1 
 5.000000E-01  5.000000E-01  9.350000E+00  5.357030E+04  2.844622E-01    1 
 5.000000E-01  5.000000E-01  9.450000E+00  5.286603E+04  2.818916E-01    1 
 5.000000E-01  5.000000E-01  9.550000E+00  5.212896E+04  2.792754E-01    1 
 5.000000E-01  5.000000E-01  9.650000E+00  5.135483E+04  2.766058E-01    1 
 5.000000E-01  5.000000E-01  9.750000E+00  5.053881E+04  2.738749E-01    1 
 5.000000E-01  5.000000E-01  9.850000E+00  4.967544E+04  2.710743E-01    1 
 5.000000E-01  5.000000E-01  9.950000E+00  4.875844E+04  2.681951E-01    1 
