TITLE = "  3.00000E-01 [y]"
VARIABLES="X [m]","Y [m]","Z [m]","Liquid Pressure [Pa]","Liquid Saturation","Material ID"
ZONE T="3.00000E-01", STRANDID=1, SOLUTIONTIME=3.00000E-01, I=1, J=1, K=100, DATAPACKING=POINT
 5.000000E-01  5.000000E-01  5.000000E-02  1.106156E+05  1.000000E+00    1 
 5.000000E-01  5.000000E-01  1.500000E-01  1.096390E+05  1.000000E+00    1 
 5.000000E-01  5.000000E-01  2.500000E-01  1.086623E+05  1.000000E+00    1 
 5.000000E-01  5.000000E-01  3.500000E-01  1.076856E+05  1.000000E+00    1 
 5.000000E-01  5.000000E-01  4.500000E-01  1.067089E+05  1.000000E+00    1 
 5.000000E-01  5.000000E-01  5.500000E-01  1.057322E+05  1.000000E+00    1 
 5.000000E-01  5.000000E-01  6.500000E-01  1.047556E+05  1.000000E+00    1 
 5.000000E-01  5.000000E-01  7.500000E-01  1.037789E+05  1.000000E+00    1 
 5.000000E-01  5.000000E-01  8.500000E-01  1.028022E+05  1.000000E+00    1 
 5.000000E-01  5.000000E-01  9.500000E-01  1.018255E+05  1.000000E+00    1 
 5.000000E-01  5.000000E-01  1.050000E+00  1.008490E+05  9.989821E-01    1 
 5.000000E-01  5.000000E-01  1.150000E+00  9.987277E+04  9.906572E-01    1 
 5.000000E-01  5.000000E-01  1.250000E+00  9.889700E+04  9.745897E-01    1 
 5.000000E-01  5.000000E-01  1.350000E+00  9.792183E+04  9.520132E-01    1 
 5.000000E-01  5.000000E-01  1.450000E+00  9.694749E+04  9.244656E-01    1 
 5.000000E-01  5.000000E-01  1.550000E+00  9.597426E+04  8.935433E-01    1 
 5.000000E-01  5.000000E-01  1.650000E+00  9.500249E+04  8.607091E-01    1 
 5.000000E-01  5.000000E-01  1.750000E+00  9.403265E+04  8.271830E-01    1 
 5.000000E-01  5.000000E-01  1.850000E+00  9.306530E+04  7.939056E-01    1 
 5.000000E-01  5.000000E-01  1.950000E+00  9.210116E+04  7.615516E-01    1 
 5.000000E-01  5.000000E-01  2.050000E+00  9.114108E+04  7.305708E-01    1 
 5.000000E-01  5.000000E-01  2.150000E+00  9.018605E+04  7.012357E-01    1 
 5.000000E-01  5.000000E-01  2.250000E+00  8.923729E+04  6.736877E-01    1 
 5.000000E-01  5.000000E-01  2.350000E+00  8.829617E+04  6.479758E-01    1 
 5.000000E-01  5.000000E-01  2.450000E+00  8.736425E+04  6.240869E-01    1 
 5.000000E-01  5.000000E-01  2.550000E+00  8.644331E+04  6.019678E-01    1 
 5.000000E-01  5.000000E-01  2.650000E+00  8.553529E+04  5.815418E-01    1 
 5.000000E-01  5.000000E-01  2.750000E+00  8.464233E+04  5.627194E-01    1 
 5.000000E-01  5.000000E-01  2.850000E+00  8.376668E+04  5.454057E-01    1 
 5.000000E-01  5.000000E-01  2.950000E+00  8.291075E+04  5.295051E-01    1 
 5.000000E-01  5.000000E-01  3.050000E+00  8.207698E+04  5.149245E-01    1 
 5.000000E-01  5.000000E-01  3.150000E+00  8.126787E+04  5.015743E-01    1 
 5.000000E-01  5.000000E-01  3.250000E+00  8.048586E+04  4.893698E-01    1 
 5.000000E-01  5.000000E-01  3.350000E+00  7.973329E+04  4.782308E-01    1 
 5.000000E-01  5.000000E-01  3.450000E+00  7.901234E+04  4.680821E-01    1 
 5.000000E-01  5.000000E-01  3.550000E+00  7.832496E+04  4.588530E-01    1 
 5.000000E-01  5.000000E-01  3.650000E+00  7.767280E+04  4.504769E-01    1 
 5.000000E-01  5.000000E-01  3.750000E+00  7.705718E+04  4.428908E-01    1 
 5.000000E-01  5.000000E-01  3.850000E+00  7.647900E+04  4.360353E-01    1 
 5.000000E-01  5.000000E-01  3.950000E+00  7.593878E+04  4.298540E-01    1 
 5.000000E-01  5.000000E-01  4.050000E+00  7.543660E+04  4.242934E-01    1 
 5.000000E-01  5.000000E-01  4.150000E+00  7.497211E+04  4.193026E-01    1 
 5.000000E-01  5.000000E-01  4.250000E+00  7.454456E+04  4.148332E-01    1 
 5.000000E-01  5.000000E-01  4.350000E+00  7.415282E+04  4.108391E-01    1 
 5.000000E-01  5.000000E-01  4.450000E+00  7.379541E+04  4.072767E-01    1 
 5.000000E-01  5.000000E-01  4.550000E+00  7.347058E+04  4.041046E-01    1 
 5.000000E-01  5.000000E-01  4.650000E+00  7.317633E+04  4.012836E-01    1 
 5.000000E-01  5.000000E-01  4.750000E+00  7.291051E+04  3.987769E-01    1 
 5.000000E-01  5.000000E-01  4.850000E+00  7.267081E+04  3.965500E-01    1 
 5.000000E-01  5.000000E-01  4.950000E+00  7.245487E+04  3.945703E-01    1 
 5.000000E-01  5.000000E-01  5.050000E+00  7.226032E+04  3.928079E-01    1 
 5.000000E-01  5.000000E-01  5.150000E+00  7.208478E+04  3.912346E-01    1 
 5.000000E-01  5.000000E-01  5.250000E+00  7.192594E+04  3.898247E-01    1 
 5.000000E-01  5.000000E-01  5.350000E+00  7.178157E+04  3.885543E-01    1 
 5.000000E-01  5.000000E-01  5.450000E+00  7.164953E+04  3.874016E-01    1 
 5.000000E-01  5.000000E-01  5.550000E+00  7.152782E+04  3.863467E-01    1 
 5.000000E-01  5.000000E-01  5.650000E+00  7.141455E+04  3.853715E-01    1 
 5.000000E-01  5.000000E-01  5.750000E+00  7.130797E+04  3.844596E-01    1 
 5.000000E-01  5.000000E-01  5.850000E+00  7.120645E+04  3.835962E-01    1 
 5.000000E-01  5.000000E-01  5.950000E+00  7.110851E+04  3.827679E-01    1 
 5.000000E-01  5.000000E-01  6.050000E+00  7.101278E+04  3.819626E-01    1 
 5.000000E-01  5.000000E-01  6.150000E+00  7.091802E+04  3.811697E-01    1 
 5.000000E-01  5.000000E-01  6.250000E+00  7.082307E+04  3.803796E-01    1 
 5.000000E-01  5.000000E-01  6.350000E+00  7.072691E+04  3.795836E-01    1 
 5.000000E-01  5.000000E-01  6.450000E+00  7.062858E+04  3.787740E-01    1 
 5.000000E-01  5.000000E-01  6.550000E+00  7.052721E+04  3.779441E-01    1 
 5.000000E-01  5.000000E-01  6.650000E+00  7.042200E+04  3.770877E-01    1 
 5.000000E-01  5.000000E-01  6.750000E+00  7.031221E+04  3.761993E-01    1 
 5.000000E-01  5.000000E-01  6.850000E+00  7.019715E+04  3.752740E-01    1 
 5.000000E-01  5.000000E-01  6.950000E+00  7.007616E+04  3.743074E-01    1 
 5.000000E-01  5.000000E-01  7.050000E+00  6.994861E+04  3.732953E-01    1 
 5.000000E-01  5.000000E-01  7.150000E+00  6.981391E+04  3.722342E-01    1 
 5.000000E-01  5.000000E-01  7.250000E+00  6.967147E+04  3.711205E-01    1 
 5.000000E-01  5.000000E-01  7.350000E+00  6.952069E+04  3.699511E-01    1 
 5.000000E-01  5.000000E-01  7.450000E+00  6.936099E+04  3.687228E-01    1 
 5.000000E-01  5.000000E-01  7.550000E+00  6.919176E+04  3.674329E-01    1 
 5.000000E-01  5.000000E-01  7.650000E+00  6.901238E+04  3.660783E-01    1 
 5.000000E-01  5.000000E-01  7.750000E+00  6.882219E+04  3.646563E-01    1 
 5.000000E-01  5.000000E-01  7.850000E+00  6.862048E+04  3.631640E-01    1 
 5.000000E-01  5.000000E-01  7.950000E+00  6.840653E+04  3.615985E-01    1 
 5.000000E-01  5.000000E-01  8.050000E+00  6.817951E+04  3.599567E-01    1 
 5.000000E-01  5.000000E-01  8.150000E+00  6.793854E+04  3.582355E-01    1 
 5.000000E-01  5.000000E-01  8.250000E+00  6.768267E+04  3.564314E-01    1 
 5.000000E-01  5.000000E-01  8.350000E+00  6.741082E+04  3.545410E-01    1 
 5.000000E-01  5.000000E-01  8.450000E+00  6.712181E+04  3.525602E-01    1 
 5.000000E-01  5.000000E-01  8.550000E+00  6.681433E+04  3.504850E-01    1 
 5.000000E-01  5.000000E-01  8.650000E+00  6.648689E+04  3.483107E-01    1 
 5.000000E-01  5.000000E-01  8.750000E+00  6.613782E+04  3.460323E-01    1 
 5.000000E-01  5.000000E-01  8.850000E+00  6.576524E+04  3.436444E-01    1 
 5.000000E-01  5.000000E-01  8.950000E+00  6.536702E+04  3.411407E-01    1 
 5.000000E-01  5.000000E-01  9.050000E+00  6.494069E+04  3.385147E-01    1 
 5.000000E-01  5.000000E-01  9.150000E+00  6.448345E+04  3.357589E-01    1 
 5.000000E-01  5.000000E-01  9.250000E+00  6.399205E+04  3.328647E-01    1 
 5.000000E-01  5.000000E-01  9.350000E+00  6.346273E+04  3.298229E-01    1 
 5.000000E-01  5.000000E-01  9.450000E+00  6.289109E+04  3.266230E-01    1 
 5.000000E-01  5.000000E-01  9.550000E+00  6.227196E+04  3.232529E-01    1 
 5.000000E-01  5.000000E-01  9.650000E+00  6.159920E+04  3.196992E-01    1 
 5.000000E-01  5.000000E-01  9.750000E+00  6.086549E+04  3.159465E-01    1 
 5.000000E-01  5.000000E-01  9.850000E+00  6.006200E+04  3.119769E-01    1 
 5.000000E-01  5.000000E-01  9.950000E+00  5.917795E+04  3.077700E-01    1 
