TITLE = "  1.00000E+01 [y]"
VARIABLES="X [m]","Y [m]","Z [m]","Liquid Pressure [Pa]","Liquid Saturation","Material ID"
ZONE T="1.00000E+01", STRANDID=1, SOLUTIONTIME=1.00000E+01, I=1, J=1, K=100, DATAPACKING=POINT
 5.000000E-01  5.000000E-01  5.000000E-02  1.106150E+05  1.000000E+00    1 
 5.000000E-01  5.000000E-01  1.500000E-01  1.096371E+05  1.000000E+00    1 
 5.000000E-01  5.000000E-01  2.500000E-01  1.086592E+05  1.000000E+00    1 
 5.000000E-01  5.000000E-01  3.500000E-01  1.076813E+05  1.000000E+00    1 
 5.000000E-01  5.000000E-01  4.500000E-01  1.067034E+05  1.000000E+00    1 
 5.000000E-01  5.000000E-01  5.500000E-01  1.057255E+05  1.000000E+00    1 
 5.000000E-01  5.000000E-01  6.500000E-01  1.047476E+05  1.000000E+00    1 
 5.000000E-01  5.000000E-01  7.500000E-01  1.037697E+05  1.000000E+00    1 
 5.000000E-01  5.000000E-01  8.500000E-01  1.027918E+05  1.000000E+00    1 
 5.000000E-01  5.000000E-01  9.500000E-01  1.018139E+05  1.000000E+00    1 
 5.000000E-01  5.000000E-01  1.050000E+00  1.008361E+05  9.989261E-01    1 
 5.000000E-01  5.000000E-01  1.150000E+00  9.985816E+04  9.904712E-01    1 
 5.000000E-01  5.000000E-01  1.250000E+00  9.888026E+04  9.742532E-01    1 
 5.000000E-01  5.000000E-01  1.350000E+00  9.790237E+04  9.515064E-01    1 
 5.000000E-01  5.000000E-01  1.450000E+00  9.692447E+04  9.237675E-01    1 
 5.000000E-01  5.000000E-01  1.550000E+00  9.594658E+04  8.926288E-01    1 
 5.000000E-01  5.000000E-01  1.650000E+00  9.496868E+04  8.595470E-01    1 
 5.000000E-01  5.000000E-01  1.750000E+00  9.399079E+04  8.257341E-01    1 
 5.000000E-01  5.000000E-01  1.850000E+00  9.301289E+04  7.921211E-01    1 
 5.000000E-01  5.000000E-01  1.950000E+00  9.203500E+04  7.593732E-01    1 
 5.000000E-01  5.000000E-01  2.050000E+00  9.105710E+04  7.279295E-01    1 
 5.000000E-01  5.000000E-01  2.150000E+00  9.007921E+04  6.980525E-01    1 
 5.000000E-01  5.000000E-01  2.250000E+00  8.910132E+04  6.698732E-01    1 
 5.000000E-01  5.000000E-01  2.350000E+00  8.812342E+04  6.434307E-01    1 
 5.000000E-01  5.000000E-01  2.450000E+00  8.714553E+04  6.187019E-01    1 
 5.000000E-01  5.000000E-01  2.550000E+00  8.616764E+04  5.956247E-01    1 
 5.000000E-01  5.000000E-01  2.650000E+00  8.518975E+04  5.741136E-01    1 
 5.000000E-01  5.000000E-01  2.750000E+00  8.421186E+04  5.540710E-01    1 
 5.000000E-01  5.000000E-01  2.850000E+00  8.323397E+04  5.353950E-01    1 
 5.000000E-01  5.000000E-01  2.950000E+00  8.225608E+04  5.179840E-01    1 
 5.000000E-01  5.000000E-01  3.050000E+00  8.127819E+04  5.017399E-01    1 
 5.000000E-01  5.000000E-01  3.150000E+00  8.030031E+04  4.865696E-01    1 
 5.000000E-01  5.000000E-01  3.250000E+00  7.932242E+04  4.723865E-01    1 
 5.000000E-01  5.000000E-01  3.350000E+00  7.834454E+04  4.591101E-01    1 
 5.000000E-01  5.000000E-01  3.450000E+00  7.736666E+04  4.466666E-01    1 
 5.000000E-01  5.000000E-01  3.550000E+00  7.638879E+04  4.349883E-01    1 
 5.000000E-01  5.000000E-01  3.650000E+00  7.541091E+04  4.240137E-01    1 
 5.000000E-01  5.000000E-01  3.750000E+00  7.443305E+04  4.136865E-01    1 
 5.000000E-01  5.000000E-01  3.850000E+00  7.345518E+04  4.039558E-01    1 
 5.000000E-01  5.000000E-01  3.950000E+00  7.247732E+04  3.947750E-01    1 
 5.000000E-01  5.000000E-01  4.050000E+00  7.149947E+04  3.861020E-01    1 
 5.000000E-01  5.000000E-01  4.150000E+00  7.052162E+04  3.778985E-01    1 
 5.000000E-01  5.000000E-01  4.250000E+00  6.954377E+04  3.701295E-01    1 
 5.000000E-01  5.000000E-01  4.350000E+00  6.856594E+04  3.627632E-01    1 
 5.000000E-01  5.000000E-01  4.450000E+00  6.758811E+04  3.557708E-01    1 
 5.000000E-01  5.000000E-01  4.550000E+00  6.661029E+04  3.491258E-01    1 
 5.000000E-01  5.000000E-01  4.650000E+00  6.563248E+04  3.428041E-01    1 
 5.000000E-01  5.000000E-01  4.750000E+00  6.465468E+04  3.367837E-01    1 
 5.000000E-01  5.000000E-01  4.850000E+00  6.367689E+04  3.310443E-01    1 
 5.000000E-01  5.000000E-01  4.950000E+00  6.269911E+04  3.255675E-01    1 
 5.000000E-01  5.000000E-01  5.050000E+00  6.172135E+04  3.203363E-01    1 
 5.000000E-01  5.000000E-01  5.150000E+00  6.074359E+04  3.153350E-01    1 
 5.000000E-01  5.000000E-01  5.250000E+00  5.976586E+04  3.105494E-01    1 
 5.000000E-01  5.000000E-01  5.350000E+00  5.878813E+04  3.059661E-01    1 
 5.000000E-01  5.000000E-01  5.450000E+00  5.781043E+04  3.015730E-01    1 
 5.000000E-01  5.000000E-01  5.550000E+00  5.683274E+04  2.973589E-01    1 
 5.000000E-01  5.000000E-01  5.650000E+00  5.585507E+04  2.933132E-01    1 
 5.000000E-01  5.000000E-01  5.750000E+00  5.487742E+04  2.894264E-01    1 
 5.000000E-01  5.000000E-01  5.850000E+00  5.389979E+04  2.856894E-01    1 
 5.000000E-01  5.000000E-01  5.950000E+00  5.292219E+04  2.820940E-01    1 
 5.000000E-01  5.000000E-01  6.050000E+00  5.194460E+04  2.786325E-01    1 
 5.000000E-01  5.000000E-01  6.150000E+00  5.096705E+04  2.752977E-01    1 
 5.000000E-01  5.000000E-01  6.250000E+00  4.998951E+04  2.720828E-01    1 
 5.000000E-01  5.000000E-01  6.350000E+00  4.901200E+04  2.689817E-01    1 
 5.000000E-01  5.000000E-01  6.450000E+00  4.803452E+04  2.659885E-01    1 
 5.000000E-01  5.000000E-01  6.550000E+00  4.705707E+04  2.630979E-01    1 
 5.000000E-01  5.000000E-01  6.650000E+00  4.607964E+04  2.603046E-01    1 
 5.000000E-01  5.000000E-01  6.750000E+00  4.510225E+04  2.576040E-01    1 
 5.000000E-01  5.000000E-01  6.850000E+00  4.412488E+04  2.549916E-01    1 
 5.000000E-01  5.000000E-01  6.950000E+00  4.314755E+04  2.524632E-01    1 
 5.000000E-01  5.000000E-01  7.050000E+00  4.217024E+04  2.500149E-01    1 
 5.000000E-01  5.000000E-01  7.150000E+00  4.119296E+04  2.476430E-01    1 
 5.000000E-01  5.000000E-01  7.250000E+00  4.021572E+04  2.453440E-01    1 
 5.000000E-01  5.000000E-01  7.350000E+00  3.923850E+04  2.431146E-01    1 
 5.000000E-01  5.000000E-01  7.450000E+00  3.826132E+04  2.409518E-01    1 
 5.000000E-01  5.000000E-01  7.550000E+00  3.728416E+04  2.388527E-01    1 
 5.000000E-01  5.000000E-01  7.650000E+00  3.630702E+04  2.368145E-01    1 
 5.000000E-01  5.000000E-01  7.750000E+00  3.532992E+04  2.348347E-01    1 
 5.000000E-01  5.000000E-01  7.850000E+00  3.435283E+04  2.329107E-01    1 
 5.000000E-01  5.000000E-01  7.950000E+00  3.337577E+04  2.310404E-01    1 
 5.000000E-01  5.000000E-01  8.050000E+00  3.239873E+04  2.292214E-01    1 
 5.000000E-01  5.000000E-01  8.150000E+00  3.142170E+04  2.274518E-01    1 
 5.000000E-01  5.000000E-01  8.250000E+00  3.044468E+04  2.257295E-01    1 
 5.000000E-01  5.000000E-01  8.350000E+00  2.946767E+04  2.240527E-01    1 
 5.000000E-01  5.000000E-01  8.450000E+00  2.849067E+04  2.224196E-01    1 
 5.000000E-01  5.000000E-01  8.550000E+00  2.751367E+04  2.208286E-01    1 
 5.000000E-01  5.000000E-01  8.650000E+00  2.653666E+04  2.192781E-01    1 
 5.000000E-01  5.000000E-01  8.750000E+00  2.555963E+04  2.177664E-01    1 
 5.000000E-01  5.000000E-01  8.850000E+00  2.458259E+04  2.162923E-01    1 
 5.000000E-01  5.000000E-01  8.950000E+00  2.360553E+04  2.148543E-01    1 
 5.000000E-01  5.000000E-01  9.050000E+00  2.262843E+04  2.134510E-01    1 
 5.000000E-01  5.000000E-01  9.150000E+00  2.165130E+04  2.120814E-01    1 
 5.000000E-01  5.000000E-01  9.250000E+00  2.067411E+04  2.107440E-01    1 
 5.000000E-01  5.000000E-01  9.350000E+00  1.969687E+04  2.094380E-01    1 
 5.000000E-01  5.000000E-01  9.450000E+00  1.871957E+04  2.081620E-01    1 
 5.000000E-01  5.000000E-01  9.550000E+00  1.774219E+04  2.069152E-01    1 
 5.000000E-01  5.000000E-01  9.650000E+00  1.676473E+04  2.056964E-01    1 
 5.000000E-01  5.000000E-01  9.750000E+00  1.578717E+04  2.045049E-01    1 
 5.000000E-01  5.000000E-01  9.850000E+00  1.480951E+04  2.033396E-01    1 
 5.000000E-01  5.000000E-01  9.950000E+00  1.383174E+04  2.021997E-01    1 
