TITLE = "  1.00000E+00 [y]"
VARIABLES="X [m]","Y [m]","Z [m]","Liquid Pressure [Pa]","Liquid Saturation","Material ID"
ZONE T="1.00000E+00", STRANDID=1, SOLUTIONTIME=1.00000E+00, I=1, J=1, K=100, DATAPACKING=POINT
 5.000000E-01  5.000000E-01  5.000000E-02  1.106151E+05  1.000000E+00    1 
 5.000000E-01  5.000000E-01  1.500000E-01  1.096374E+05  1.000000E+00    1 
 5.000000E-01  5.000000E-01  2.500000E-01  1.086597E+05  1.000000E+00    1 
 5.000000E-01  5.000000E-01  3.500000E-01  1.076820E+05  1.000000E+00    1 
 5.000000E-01  5.000000E-01  4.500000E-01  1.067043E+05  1.000000E+00    1 
 5.000000E-01  5.000000E-01  5.500000E-01  1.057266E+05  1.000000E+00    1 
 5.000000E-01  5.000000E-01  6.500000E-01  1.047489E+05  1.000000E+00    1 
 5.000000E-01  5.000000E-01  7.500000E-01  1.037712E+05  1.000000E+00    1 
 5.000000E-01  5.000000E-01  8.500000E-01  1.027935E+05  1.000000E+00    1 
 5.000000E-01  5.000000E-01  9.500000E-01  1.018159E+05  1.000000E+00    1 
 5.000000E-01  5.000000E-01  1.050000E+00  1.008382E+05  9.989354E-01    1 
 5.000000E-01  5.000000E-01  1.150000E+00  9.986056E+04  9.905018E-01    1 
 5.000000E-01  5.000000E-01  1.250000E+00  9.888301E+04  9.743086E-01    1 
 5.000000E-01  5.000000E-01  1.350000E+00  9.790557E+04  9.515898E-01    1 
 5.000000E-01  5.000000E-01  1.450000E+00  9.692826E+04  9.238824E-01    1 
 5.000000E-01  5.000000E-01  1.550000E+00  9.595113E+04  8.927794E-01    1 
 5.000000E-01  5.000000E-01  1.650000E+00  9.497425E+04  8.597385E-01    1 
 5.000000E-01  5.000000E-01  1.750000E+00  9.399769E+04  8.259730E-01    1 
 5.000000E-01  5.000000E-01  1.850000E+00  9.302155E+04  7.924156E-01    1 
 5.000000E-01  5.000000E-01  1.950000E+00  9.204594E+04  7.597330E-01    1 
 5.000000E-01  5.000000E-01  2.050000E+00  9.107102E+04  7.283664E-01    1 
 5.000000E-01  5.000000E-01  2.150000E+00  9.009696E+04  6.985798E-01    1 
 5.000000E-01  5.000000E-01  2.250000E+00  8.912397E+04  6.705064E-01    1 
 5.000000E-01  5.000000E-01  2.350000E+00  8.815231E+04  6.441869E-01    1 
 5.000000E-01  5.000000E-01  2.450000E+00  8.718226E+04  6.196004E-01    1 
 5.000000E-01  5.000000E-01  2.550000E+00  8.621416E+04  5.966865E-01    1 
 5.000000E-01  5.000000E-01  2.650000E+00  8.524842E+04  5.753618E-01    1 
 5.000000E-01  5.000000E-01  2.750000E+00  8.428546E+04  5.555307E-01    1 
 5.000000E-01  5.000000E-01  2.850000E+00  8.332579E+04  5.370933E-01    1 
 5.000000E-01  5.000000E-01  2.950000E+00  8.236998E+04  5.199501E-01    1 
 5.000000E-01  5.000000E-01  3.050000E+00  8.141865E+04  5.040049E-01    1 
 5.000000E-01  5.000000E-01  3.150000E+00  8.047249E+04  4.891668E-01    1 
 5.000000E-01  5.000000E-01  3.250000E+00  7.953227E+04  4.753511E-01    1 
 5.000000E-01  5.000000E-01  3.350000E+00  7.859882E+04  4.624794E-01    1 
 5.000000E-01  5.000000E-01  3.450000E+00  7.767303E+04  4.504797E-01    1 
 5.000000E-01  5.000000E-01  3.550000E+00  7.675587E+04  4.392865E-01    1 
 5.000000E-01  5.000000E-01  3.650000E+00  7.584836E+04  4.288399E-01    1 
 5.000000E-01  5.000000E-01  3.750000E+00  7.495160E+04  4.190855E-01    1 
 5.000000E-01  5.000000E-01  3.850000E+00  7.406673E+04  4.099740E-01    1 
 5.000000E-01  5.000000E-01  3.950000E+00  7.319493E+04  4.014605E-01    1 
 5.000000E-01  5.000000E-01  4.050000E+00  7.233744E+04  3.935042E-01    1 
 5.000000E-01  5.000000E-01  4.150000E+00  7.149553E+04  3.860681E-01    1 
 5.000000E-01  5.000000E-01  4.250000E+00  7.067047E+04  3.791184E-01    1 
 5.000000E-01  5.000000E-01  4.350000E+00  6.986355E+04  3.726243E-01    1 
 5.000000E-01  5.000000E-01  4.450000E+00  6.907605E+04  3.665576E-01    1 
 5.000000E-01  5.000000E-01  4.550000E+00  6.830923E+04  3.608925E-01    1 
 5.000000E-01  5.000000E-01  4.650000E+00  6.756430E+04  3.556050E-01    1 
 5.000000E-01  5.000000E-01  4.750000E+00  6.684242E+04  3.506732E-01    1 
 5.000000E-01  5.000000E-01  4.850000E+00  6.614470E+04  3.460768E-01    1 
 5.000000E-01  5.000000E-01  4.950000E+00  6.547213E+04  3.417968E-01    1 
 5.000000E-01  5.000000E-01  5.050000E+00  6.482563E+04  3.378155E-01    1 
 5.000000E-01  5.000000E-01  5.150000E+00  6.420599E+04  3.341163E-01    1 
 5.000000E-01  5.000000E-01  5.250000E+00  6.361386E+04  3.306836E-01    1 
 5.000000E-01  5.000000E-01  5.350000E+00  6.304978E+04  3.275026E-01    1 
 5.000000E-01  5.000000E-01  5.450000E+00  6.251414E+04  3.245595E-01    1 
 5.000000E-01  5.000000E-01  5.550000E+00  6.200715E+04  3.218409E-01    1 
 5.000000E-01  5.000000E-01  5.650000E+00  6.152889E+04  3.193342E-01    1 
 5.000000E-01  5.000000E-01  5.750000E+00  6.107930E+04  3.170272E-01    1 
 5.000000E-01  5.000000E-01  5.850000E+00  6.065815E+04  3.149084E-01    1 
 5.000000E-01  5.000000E-01  5.950000E+00  6.026505E+04  3.129666E-01    1 
 5.000000E-01  5.000000E-01  6.050000E+00  5.989951E+04  3.111913E-01    1 
 5.000000E-01  5.000000E-01  6.150000E+00  5.956087E+04  3.095721E-01    1 
 5.000000E-01  5.000000E-01  6.250000E+00  5.924839E+04  3.080993E-01    1 
 5.000000E-01  5.000000E-01  6.350000E+00  5.896121E+04  3.067633E-01    1 
 5.000000E-01  5.000000E-01  6.450000E+00  5.869837E+04  3.055550E-01    1 
 5.000000E-01  5.000000E-01  6.550000E+00  5.845885E+04  3.044659E-01    1 
 5.000000E-01  5.000000E-01  6.650000E+00  5.824155E+04  3.034875E-01    1 
 5.000000E-01  5.000000E-01  6.750000E+00  5.804536E+04  3.026119E-01    1 
 5.000000E-01  5.000000E-01  6.850000E+00  5.786909E+04  3.018315E-01    1 
 5.000000E-01  5.000000E-01  6.950000E+00  5.771157E+04  3.011390E-01    1 
 5.000000E-01  5.000000E-01  7.050000E+00  5.757161E+04  3.005276E-01    1 
 5.000000E-01  5.000000E-01  7.150000E+00  5.744802E+04  2.999907E-01    1 
 5.000000E-01  5.000000E-01  7.250000E+00  5.733963E+04  2.995221E-01    1 
 5.000000E-01  5.000000E-01  7.350000E+00  5.724530E+04  2.991160E-01    1 
 5.000000E-01  5.000000E-01  7.450000E+00  5.716391E+04  2.987670E-01    1 
 5.000000E-01  5.000000E-01  7.550000E+00  5.709440E+04  2.984698E-01    1 
 5.000000E-01  5.000000E-01  7.650000E+00  5.703572E+04  2.982196E-01    1 
 5.000000E-01  5.000000E-01  7.750000E+00  5.698689E+04  2.980119E-01    1 
 5.000000E-01  5.000000E-01  7.850000E+00  5.694698E+04  2.978424E-01    1 
 5.000000E-01  5.000000E-01  7.950000E+00  5.691512E+04  2.977073E-01    1 
 5.000000E-01  5.000000E-01  8.050000E+00  5.689047E+04  2.976029E-01    1 
 5.000000E-01  5.000000E-01  8.150000E+00  5.687225E+04  2.975258E-01    1 
 5.000000E-01  5.000000E-01  8.250000E+00  5.685975E+04  2.974730E-01    1 
 5.000000E-01  5.000000E-01  8.350000E+00  5.685230E+04  2.974415E-01    1 
 5.000000E-01  5.000000E-01  8.450000E+00  5.684928E+04  2.974288E-01    1 
 5.000000E-01  5.000000E-01  8.550000E+00  5.685013E+04  2.974323E-01    1 
 5.000000E-01  5.000000E-01  8.650000E+00  5.685431E+04  2.974500E-01    1 
 5.000000E-01  5.000000E-01  8.750000E+00  5.686136E+04  2.974798E-01    1 
 5.000000E-01  5.000000E-01  8.850000E+00  5.687084E+04  2.975199E-01    1 
 5.000000E-01  5.000000E-01  8.950000E+00  5.688236E+04  2.975686E-01    1 
 5.000000E-01  5.000000E-01  9.050000E+00  5.689556E+04  2.976245E-01    1 
 5.000000E-01  5.000000E-01  9.150000E+00  5.691012E+04  2.976862E-01    1 
 5.000000E-01  5.000000E-01  9.250000E+00  5.692577E+04  2.977524E-01    1 
 5.000000E-01  5.000000E-01  9.350000E+00  5.694223E+04  2.978222E-01    1 
 5.000000E-01  5.000000E-01  9.450000E+00  5.695928E+04  2.978946E-01    1 
 5.000000E-01  5.000000E-01  9.550000E+00  5.697673E+04  2.979687E-01    1 
 5.000000E-01  5.000000E-01  9.650000E+00  5.699439E+04  2.980437E-01    1 
 5.000000E-01  5.000000E-01  9.750000E+00  5.701210E+04  2.981191E-01    1 
 5.000000E-01  5.000000E-01  9.850000E+00  5.702974E+04  2.981941E-01    1 
 5.000000E-01  5.000000E-01  9.950000E+00  5.704719E+04  2.982684E-01    1 
