TITLE = "  5.00000E+00 [y]"
VARIABLES="X [m]","Y [m]","Z [m]","Liquid Pressure [Pa]","Liquid Saturation","Material ID"
ZONE T="5.00000E+00", STRANDID=1, SOLUTIONTIME=5.00000E+00, I=1, J=1, K=100, DATAPACKING=POINT
 5.000000E-01  5.000000E-01  5.000000E-02  1.106150E+05  1.000000E+00    2 
 5.000000E-01  5.000000E-01  1.500000E-01  1.096371E+05  1.000000E+00    2 
 5.000000E-01  5.000000E-01  2.500000E-01  1.086593E+05  1.000000E+00    2 
 5.000000E-01  5.000000E-01  3.500000E-01  1.076814E+05  1.000000E+00    2 
 5.000000E-01  5.000000E-01  4.500000E-01  1.067035E+05  1.000000E+00    2 
 5.000000E-01  5.000000E-01  5.500000E-01  1.057256E+05  1.000000E+00    2 
 5.000000E-01  5.000000E-01  6.500000E-01  1.047477E+05  1.000000E+00    2 
 5.000000E-01  5.000000E-01  7.500000E-01  1.037698E+05  1.000000E+00    2 
 5.000000E-01  5.000000E-01  8.500000E-01  1.027919E+05  1.000000E+00    2 
 5.000000E-01  5.000000E-01  9.500000E-01  1.018140E+05  1.000000E+00    2 
 5.000000E-01  5.000000E-01  1.050000E+00  1.008362E+05  9.983004E-01    2 
 5.000000E-01  5.000000E-01  1.150000E+00  9.985827E+04  9.743862E-01    2 
 5.000000E-01  5.000000E-01  1.250000E+00  9.888040E+04  9.158617E-01    2 
 5.000000E-01  5.000000E-01  1.350000E+00  9.790254E+04  8.304745E-01    2 
 5.000000E-01  5.000000E-01  1.450000E+00  9.692471E+04  7.345623E-01    2 
 5.000000E-01  5.000000E-01  1.550000E+00  9.594695E+04  6.419489E-01    2 
 5.000000E-01  5.000000E-01  1.650000E+00  9.496929E+04  5.598169E-01    2 
 5.000000E-01  5.000000E-01  1.750000E+00  9.399185E+04  4.901320E-01    2 
 5.000000E-01  5.000000E-01  1.850000E+00  9.301474E+04  4.321809E-01    2 
 5.000000E-01  5.000000E-01  1.950000E+00  9.203819E+04  3.842932E-01    2 
 5.000000E-01  5.000000E-01  2.050000E+00  9.106251E+04  3.446794E-01    2 
 5.000000E-01  5.000000E-01  2.150000E+00  9.008814E+04  3.117498E-01    2 
 5.000000E-01  5.000000E-01  2.250000E+00  8.911569E+04  2.841946E-01    2 
 5.000000E-01  5.000000E-01  2.350000E+00  8.814596E+04  2.609689E-01    2 
 5.000000E-01  5.000000E-01  2.450000E+00  8.718003E+04  2.412507E-01    2 
 5.000000E-01  5.000000E-01  2.550000E+00  8.621923E+04  2.243958E-01    2 
 5.000000E-01  5.000000E-01  2.650000E+00  8.526522E+04  2.098983E-01    2 
 5.000000E-01  5.000000E-01  2.750000E+00  8.432004E+04  1.973591E-01    2 
 5.000000E-01  5.000000E-01  2.850000E+00  8.338608E+04  1.864615E-01    2 
 5.000000E-01  5.000000E-01  2.950000E+00  8.246612E+04  1.769521E-01    2 
 5.000000E-01  5.000000E-01  3.050000E+00  8.156326E+04  1.686267E-01    2 
 5.000000E-01  5.000000E-01  3.150000E+00  8.068094E+04  1.613191E-01    2 
 5.000000E-01  5.000000E-01  3.250000E+00  7.982274E+04  1.548927E-01    2 
 5.000000E-01  5.000000E-01  3.350000E+00  7.899236E+04  1.492340E-01    2 
 5.000000E-01  5.000000E-01  3.450000E+00  7.819340E+04  1.442476E-01    2 
 5.000000E-01  5.000000E-01  3.550000E+00  7.742922E+04  1.398524E-01    2 
 5.000000E-01  5.000000E-01  3.650000E+00  7.670276E+04  1.359784E-01    2 
 5.000000E-01  5.000000E-01  3.750000E+00  7.601638E+04  1.325646E-01    2 
 5.000000E-01  5.000000E-01  3.850000E+00  7.537175E+04  1.295573E-01    2 
 5.000000E-01  5.000000E-01  3.950000E+00  7.476975E+04  1.269086E-01    2 
 5.000000E-01  5.000000E-01  4.050000E+00  7.421047E+04  1.245758E-01    2 
 5.000000E-01  5.000000E-01  4.150000E+00  7.369323E+04  1.225206E-01    2 
 5.000000E-01  5.000000E-01  4.250000E+00  7.321663E+04  1.207083E-01    2 
 5.000000E-01  5.000000E-01  4.350000E+00  7.277870E+04  1.191082E-01    2 
 5.000000E-01  5.000000E-01  4.450000E+00  7.237701E+04  1.176924E-01    2 
 5.000000E-01  5.000000E-01  4.550000E+00  7.200879E+04  1.164363E-01    2 
 5.000000E-01  5.000000E-01  4.650000E+00  7.167109E+04  1.153178E-01    2 
 5.000000E-01  5.000000E-01  4.750000E+00  7.136088E+04  1.143175E-01    2 
 5.000000E-01  5.000000E-01  4.850000E+00  7.107515E+04  1.134184E-01    2 
 5.000000E-01  5.000000E-01  4.950000E+00  7.081098E+04  1.126055E-01    2 
 5.000000E-01  5.000000E-01  5.050000E+00  6.984238E+04  3.724578E-01    1 
 5.000000E-01  5.000000E-01  5.150000E+00  6.887795E+04  3.650717E-01    1 
 5.000000E-01  5.000000E-01  5.250000E+00  6.791463E+04  3.580659E-01    1 
 5.000000E-01  5.000000E-01  5.350000E+00  6.695248E+04  3.514133E-01    1 
 5.000000E-01  5.000000E-01  5.450000E+00  6.599153E+04  3.450894E-01    1 
 5.000000E-01  5.000000E-01  5.550000E+00  6.503184E+04  3.390716E-01    1 
 5.000000E-01  5.000000E-01  5.650000E+00  6.407343E+04  3.333392E-01    1 
 5.000000E-01  5.000000E-01  5.750000E+00  6.311634E+04  3.278736E-01    1 
 5.000000E-01  5.000000E-01  5.850000E+00  6.216062E+04  3.226571E-01    1 
 5.000000E-01  5.000000E-01  5.950000E+00  6.120629E+04  3.176740E-01    1 
 5.000000E-01  5.000000E-01  6.050000E+00  6.025337E+04  3.129094E-01    1 
 5.000000E-01  5.000000E-01  6.150000E+00  5.930189E+04  3.083500E-01    1 
 5.000000E-01  5.000000E-01  6.250000E+00  5.835186E+04  3.039830E-01    1 
 5.000000E-01  5.000000E-01  6.350000E+00  5.740330E+04  2.997971E-01    1 
 5.000000E-01  5.000000E-01  6.450000E+00  5.645622E+04  2.957814E-01    1 
 5.000000E-01  5.000000E-01  6.550000E+00  5.551060E+04  2.919261E-01    1 
 5.000000E-01  5.000000E-01  6.650000E+00  5.456646E+04  2.882219E-01    1 
 5.000000E-01  5.000000E-01  6.750000E+00  5.362376E+04  2.846602E-01    1 
 5.000000E-01  5.000000E-01  6.850000E+00  5.268250E+04  2.812332E-01    1 
 5.000000E-01  5.000000E-01  6.950000E+00  5.174264E+04  2.779334E-01    1 
 5.000000E-01  5.000000E-01  7.050000E+00  5.080415E+04  2.747538E-01    1 
 5.000000E-01  5.000000E-01  7.150000E+00  4.986697E+04  2.716879E-01    1 
 5.000000E-01  5.000000E-01  7.250000E+00  4.893105E+04  2.687298E-01    1 
 5.000000E-01  5.000000E-01  7.350000E+00  4.799633E+04  2.658737E-01    1 
 5.000000E-01  5.000000E-01  7.450000E+00  4.706273E+04  2.631143E-01    1 
 5.000000E-01  5.000000E-01  7.550000E+00  4.613017E+04  2.604467E-01    1 
 5.000000E-01  5.000000E-01  7.650000E+00  4.519854E+04  2.578661E-01    1 
 5.000000E-01  5.000000E-01  7.750000E+00  4.426773E+04  2.553681E-01    1 
 5.000000E-01  5.000000E-01  7.850000E+00  4.333762E+04  2.529485E-01    1 
 5.000000E-01  5.000000E-01  7.950000E+00  4.240807E+04  2.506035E-01    1 
 5.000000E-01  5.000000E-01  8.050000E+00  4.147894E+04  2.483294E-01    1 
 5.000000E-01  5.000000E-01  8.150000E+00  4.055006E+04  2.461225E-01    1 
 5.000000E-01  5.000000E-01  8.250000E+00  3.962125E+04  2.439797E-01    1 
 5.000000E-01  5.000000E-01  8.350000E+00  3.869232E+04  2.418977E-01    1 
 5.000000E-01  5.000000E-01  8.450000E+00  3.776307E+04  2.398737E-01    1 
 5.000000E-01  5.000000E-01  8.550000E+00  3.683325E+04  2.379048E-01    1 
 5.000000E-01  5.000000E-01  8.650000E+00  3.590264E+04  2.359882E-01    1 
 5.000000E-01  5.000000E-01  8.750000E+00  3.497098E+04  2.341215E-01    1 
 5.000000E-01  5.000000E-01  8.850000E+00  3.403798E+04  2.323023E-01    1 
 5.000000E-01  5.000000E-01  8.950000E+00  3.310335E+04  2.305281E-01    1 
 5.000000E-01  5.000000E-01  9.050000E+00  3.216678E+04  2.287969E-01    1 
 5.000000E-01  5.000000E-01  9.150000E+00  3.122794E+04  2.271065E-01    1 
 5.000000E-01  5.000000E-01  9.250000E+00  3.028646E+04  2.254549E-01    1 
 5.000000E-01  5.000000E-01  9.350000E+00  2.934198E+04  2.238402E-01    1 
 5.000000E-01  5.000000E-01  9.450000E+00  2.839410E+04  2.222605E-01    1 
 5.000000E-01  5.000000E-01  9.550000E+00  2.744240E+04  2.207142E-01    1 
 5.000000E-01  5.000000E-01  9.650000E+00  2.648644E+04  2.191994E-01    1 
 5.000000E-01  5.000000E-01  9.750000E+00  2.552575E+04  2.177147E-01    1 
 5.000000E-01  5.000000E-01  9.850000E+00  2.455985E+04  2.162584E-01    1 
 5.000000E-01  5.000000E-01  9.950000E+00  2.358822E+04  2.148291E-01    1 
