TITLE = "  2.00000E+00 [y]"
VARIABLES="X [m]","Y [m]","Z [m]","Liquid Pressure [Pa]","Liquid Saturation","Material ID"
ZONE T="2.00000E+00", STRANDID=1, SOLUTIONTIME=2.00000E+00, I=1, J=1, K=100, DATAPACKING=POINT
 5.000000E-01  5.000000E-01  5.000000E-02  1.106150E+05  1.000000E+00    2 
 5.000000E-01  5.000000E-01  1.500000E-01  1.096372E+05  1.000000E+00    2 
 5.000000E-01  5.000000E-01  2.500000E-01  1.086593E+05  1.000000E+00    2 
 5.000000E-01  5.000000E-01  3.500000E-01  1.076815E+05  1.000000E+00    2 
 5.000000E-01  5.000000E-01  4.500000E-01  1.067036E+05  1.000000E+00    2 
 5.000000E-01  5.000000E-01  5.500000E-01  1.057257E+05  1.000000E+00    2 
 5.000000E-01  5.000000E-01  6.500000E-01  1.047479E+05  1.000000E+00    2 
 5.000000E-01  5.000000E-01  7.500000E-01  1.037700E+05  1.000000E+00    2 
 5.000000E-01  5.000000E-01  8.500000E-01  1.027922E+05  1.000000E+00    2 
 5.000000E-01  5.000000E-01  9.500000E-01  1.018143E+05  1.000000E+00    2 
 5.000000E-01  5.000000E-01  1.050000E+00  1.008365E+05  9.983030E-01    2 
 5.000000E-01  5.000000E-01  1.150000E+00  9.985862E+04  9.744008E-01    2 
 5.000000E-01  5.000000E-01  1.250000E+00  9.888081E+04  9.158928E-01    2 
 5.000000E-01  5.000000E-01  1.350000E+00  9.790306E+04  8.305243E-01    2 
 5.000000E-01  5.000000E-01  1.450000E+00  9.692544E+04  7.346339E-01    2 
 5.000000E-01  5.000000E-01  1.550000E+00  9.594807E+04  6.420499E-01    2 
 5.000000E-01  5.000000E-01  1.650000E+00  9.497115E+04  5.599613E-01    2 
 5.000000E-01  5.000000E-01  1.750000E+00  9.399505E+04  4.903407E-01    2 
 5.000000E-01  5.000000E-01  1.850000E+00  9.302033E+04  4.324820E-01    2 
 5.000000E-01  5.000000E-01  1.950000E+00  9.204782E+04  3.847225E-01    2 
 5.000000E-01  5.000000E-01  2.050000E+00  9.107877E+04  3.452812E-01    2 
 5.000000E-01  5.000000E-01  2.150000E+00  9.011489E+04  3.125776E-01    2 
 5.000000E-01  5.000000E-01  2.250000E+00  8.915849E+04  2.853111E-01    2 
 5.000000E-01  5.000000E-01  2.350000E+00  8.821258E+04  2.624463E-01    2 
 5.000000E-01  5.000000E-01  2.450000E+00  8.728089E+04  2.431700E-01    2 
 5.000000E-01  5.000000E-01  2.550000E+00  8.636793E+04  2.268455E-01    2 
 5.000000E-01  5.000000E-01  2.650000E+00  8.547888E+04  2.129724E-01    2 
 5.000000E-01  5.000000E-01  2.750000E+00  8.461944E+04  2.011540E-01    2 
 5.000000E-01  5.000000E-01  2.850000E+00  8.379554E+04  1.910725E-01    2 
 5.000000E-01  5.000000E-01  2.950000E+00  8.301295E+04  1.824691E-01    2 
 5.000000E-01  5.000000E-01  3.050000E+00  8.227689E+04  1.751297E-01    2 
 5.000000E-01  5.000000E-01  3.150000E+00  8.159157E+04  1.688741E-01    2 
 5.000000E-01  5.000000E-01  3.250000E+00  8.095990E+04  1.635481E-01    2 
 5.000000E-01  5.000000E-01  3.350000E+00  8.038321E+04  1.590182E-01    2 
 5.000000E-01  5.000000E-01  3.450000E+00  7.986128E+04  1.551681E-01    2 
 5.000000E-01  5.000000E-01  3.550000E+00  7.939240E+04  1.518958E-01    2 
 5.000000E-01  5.000000E-01  3.650000E+00  7.897365E+04  1.491123E-01    2 
 5.000000E-01  5.000000E-01  3.750000E+00  7.860118E+04  1.467398E-01    2 
 5.000000E-01  5.000000E-01  3.850000E+00  7.827059E+04  1.447112E-01    2 
 5.000000E-01  5.000000E-01  3.950000E+00  7.797716E+04  1.429686E-01    2 
 5.000000E-01  5.000000E-01  4.050000E+00  7.771621E+04  1.414627E-01    2 
 5.000000E-01  5.000000E-01  4.150000E+00  7.748322E+04  1.401518E-01    2 
 5.000000E-01  5.000000E-01  4.250000E+00  7.727397E+04  1.390006E-01    2 
 5.000000E-01  5.000000E-01  4.350000E+00  7.708465E+04  1.379798E-01    2 
 5.000000E-01  5.000000E-01  4.450000E+00  7.691188E+04  1.370650E-01    2 
 5.000000E-01  5.000000E-01  4.550000E+00  7.675267E+04  1.362357E-01    2 
 5.000000E-01  5.000000E-01  4.650000E+00  7.660448E+04  1.354755E-01    2 
 5.000000E-01  5.000000E-01  4.750000E+00  7.646510E+04  1.347705E-01    2 
 5.000000E-01  5.000000E-01  4.850000E+00  7.633267E+04  1.341095E-01    2 
 5.000000E-01  5.000000E-01  4.950000E+00  7.620562E+04  1.334833E-01    2 
 5.000000E-01  5.000000E-01  5.050000E+00  7.524312E+04  4.221970E-01    1 
 5.000000E-01  5.000000E-01  5.150000E+00  7.428796E+04  4.122062E-01    1 
 5.000000E-01  5.000000E-01  5.250000E+00  7.333516E+04  4.028002E-01    1 
 5.000000E-01  5.000000E-01  5.350000E+00  7.238486E+04  3.939338E-01    1 
 5.000000E-01  5.000000E-01  5.450000E+00  7.143721E+04  3.855661E-01    1 
 5.000000E-01  5.000000E-01  5.550000E+00  7.049233E+04  3.776596E-01    1 
 5.000000E-01  5.000000E-01  5.650000E+00  6.955037E+04  3.701805E-01    1 
 5.000000E-01  5.000000E-01  5.750000E+00  6.861145E+04  3.630976E-01    1 
 5.000000E-01  5.000000E-01  5.850000E+00  6.767569E+04  3.563826E-01    1 
 5.000000E-01  5.000000E-01  5.950000E+00  6.674322E+04  3.500097E-01    1 
 5.000000E-01  5.000000E-01  6.050000E+00  6.581414E+04  3.439552E-01    1 
 5.000000E-01  5.000000E-01  6.150000E+00  6.488856E+04  3.381974E-01    1 
 5.000000E-01  5.000000E-01  6.250000E+00  6.396655E+04  3.327164E-01    1 
 5.000000E-01  5.000000E-01  6.350000E+00  6.304819E+04  3.274938E-01    1 
 5.000000E-01  5.000000E-01  6.450000E+00  6.213355E+04  3.225127E-01    1 
 5.000000E-01  5.000000E-01  6.550000E+00  6.122268E+04  3.177577E-01    1 
 5.000000E-01  5.000000E-01  6.650000E+00  6.031559E+04  3.132144E-01    1 
 5.000000E-01  5.000000E-01  6.750000E+00  5.941232E+04  3.088694E-01    1 
 5.000000E-01  5.000000E-01  6.850000E+00  5.851284E+04  3.047104E-01    1 
 5.000000E-01  5.000000E-01  6.950000E+00  5.761713E+04  3.007260E-01    1 
 5.000000E-01  5.000000E-01  7.050000E+00  5.672513E+04  2.969055E-01    1 
 5.000000E-01  5.000000E-01  7.150000E+00  5.583678E+04  2.932391E-01    1 
 5.000000E-01  5.000000E-01  7.250000E+00  5.495197E+04  2.897174E-01    1 
 5.000000E-01  5.000000E-01  7.350000E+00  5.407057E+04  2.863318E-01    1 
 5.000000E-01  5.000000E-01  7.450000E+00  5.319243E+04  2.830742E-01    1 
 5.000000E-01  5.000000E-01  7.550000E+00  5.231735E+04  2.799370E-01    1 
 5.000000E-01  5.000000E-01  7.650000E+00  5.144512E+04  2.769132E-01    1 
 5.000000E-01  5.000000E-01  7.750000E+00  5.057549E+04  2.739959E-01    1 
 5.000000E-01  5.000000E-01  7.850000E+00  4.970817E+04  2.711789E-01    1 
 5.000000E-01  5.000000E-01  7.950000E+00  4.884284E+04  2.684561E-01    1 
 5.000000E-01  5.000000E-01  8.050000E+00  4.797914E+04  2.658220E-01    1 
 5.000000E-01  5.000000E-01  8.150000E+00  4.711667E+04  2.632713E-01    1 
 5.000000E-01  5.000000E-01  8.250000E+00  4.625500E+04  2.607988E-01    1 
 5.000000E-01  5.000000E-01  8.350000E+00  4.539365E+04  2.583997E-01    1 
 5.000000E-01  5.000000E-01  8.450000E+00  4.453209E+04  2.560696E-01    1 
 5.000000E-01  5.000000E-01  8.550000E+00  4.366977E+04  2.538040E-01    1 
 5.000000E-01  5.000000E-01  8.650000E+00  4.280607E+04  2.515988E-01    1 
 5.000000E-01  5.000000E-01  8.750000E+00  4.194033E+04  2.494501E-01    1 
 5.000000E-01  5.000000E-01  8.850000E+00  4.107184E+04  2.473541E-01    1 
 5.000000E-01  5.000000E-01  8.950000E+00  4.019985E+04  2.453072E-01    1 
 5.000000E-01  5.000000E-01  9.050000E+00  3.932353E+04  2.433059E-01    1 
 5.000000E-01  5.000000E-01  9.150000E+00  3.844204E+04  2.413469E-01    1 
 5.000000E-01  5.000000E-01  9.250000E+00  3.755443E+04  2.394271E-01    1 
 5.000000E-01  5.000000E-01  9.350000E+00  3.665971E+04  2.375433E-01    1 
 5.000000E-01  5.000000E-01  9.450000E+00  3.575685E+04  2.356927E-01    1 
 5.000000E-01  5.000000E-01  9.550000E+00  3.484471E+04  2.338724E-01    1 
 5.000000E-01  5.000000E-01  9.650000E+00  3.392212E+04  2.320797E-01    1 
 5.000000E-01  5.000000E-01  9.750000E+00  3.298780E+04  2.303120E-01    1 
 5.000000E-01  5.000000E-01  9.850000E+00  3.204041E+04  2.285668E-01    1 
 5.000000E-01  5.000000E-01  9.950000E+00  3.107852E+04  2.268415E-01    1 
