TITLE = "  3.50000E+01 [y]"
VARIABLES="X [m]","Y [m]","Z [m]","Liquid Pressure [Pa]","Liquid Saturation","Material ID"
ZONE T="3.50000E+01", STRANDID=1, SOLUTIONTIME=3.50000E+01, I=1, J=1, K=100, DATAPACKING=POINT
 5.000000E-01  5.000000E-01  5.000000E-02  1.106150E+05  1.000000E+00    2 
 5.000000E-01  5.000000E-01  1.500000E-01  1.096371E+05  1.000000E+00    2 
 5.000000E-01  5.000000E-01  2.500000E-01  1.086592E+05  1.000000E+00    2 
 5.000000E-01  5.000000E-01  3.500000E-01  1.076813E+05  1.000000E+00    2 
 5.000000E-01  5.000000E-01  4.500000E-01  1.067034E+05  1.000000E+00    2 
 5.000000E-01  5.000000E-01  5.500000E-01  1.057255E+05  1.000000E+00    2 
 5.000000E-01  5.000000E-01  6.500000E-01  1.047476E+05  1.000000E+00    2 
 5.000000E-01  5.000000E-01  7.500000E-01  1.037697E+05  1.000000E+00    2 
 5.000000E-01  5.000000E-01  8.500000E-01  1.027918E+05  1.000000E+00    2 
 5.000000E-01  5.000000E-01  9.500000E-01  1.018139E+05  1.000000E+00    2 
 5.000000E-01  5.000000E-01  1.050000E+00  1.008361E+05  9.982995E-01    2 
 5.000000E-01  5.000000E-01  1.150000E+00  9.985816E+04  9.743815E-01    2 
 5.000000E-01  5.000000E-01  1.250000E+00  9.888026E+04  9.158516E-01    2 
 5.000000E-01  5.000000E-01  1.350000E+00  9.790237E+04  8.304584E-01    2 
 5.000000E-01  5.000000E-01  1.450000E+00  9.692448E+04  7.345392E-01    2 
 5.000000E-01  5.000000E-01  1.550000E+00  9.594658E+04  6.419162E-01    2 
 5.000000E-01  5.000000E-01  1.650000E+00  9.496869E+04  5.597701E-01    2 
 5.000000E-01  5.000000E-01  1.750000E+00  9.399081E+04  4.900644E-01    2 
 5.000000E-01  5.000000E-01  1.850000E+00  9.301293E+04  4.320834E-01    2 
 5.000000E-01  5.000000E-01  1.950000E+00  9.203506E+04  3.841540E-01    2 
 5.000000E-01  5.000000E-01  2.050000E+00  9.105721E+04  3.444838E-01    2 
 5.000000E-01  5.000000E-01  2.150000E+00  9.007939E+04  3.114800E-01    2 
 5.000000E-01  5.000000E-01  2.250000E+00  8.910160E+04  2.838292E-01    2 
 5.000000E-01  5.000000E-01  2.350000E+00  8.812388E+04  2.604826E-01    2 
 5.000000E-01  5.000000E-01  2.450000E+00  8.714623E+04  2.406143E-01    2 
 5.000000E-01  5.000000E-01  2.550000E+00  8.616869E+04  2.235757E-01    2 
 5.000000E-01  5.000000E-01  2.650000E+00  8.519130E+04  2.088565E-01    2 
 5.000000E-01  5.000000E-01  2.750000E+00  8.421410E+04  1.960532E-01    2 
 5.000000E-01  5.000000E-01  2.850000E+00  8.323715E+04  1.848448E-01    2 
 5.000000E-01  5.000000E-01  2.950000E+00  8.226052E+04  1.749741E-01    2 
 5.000000E-01  5.000000E-01  3.050000E+00  8.128430E+04  1.662334E-01    2 
 5.000000E-01  5.000000E-01  3.150000E+00  8.030859E+04  1.584537E-01    2 
 5.000000E-01  5.000000E-01  3.250000E+00  7.933351E+04  1.514966E-01    2 
 5.000000E-01  5.000000E-01  3.350000E+00  7.835920E+04  1.452480E-01    2 
 5.000000E-01  5.000000E-01  3.450000E+00  7.738584E+04  1.396131E-01    2 
 5.000000E-01  5.000000E-01  3.550000E+00  7.641361E+04  1.345124E-01    2 
 5.000000E-01  5.000000E-01  3.650000E+00  7.544273E+04  1.298795E-01    2 
 5.000000E-01  5.000000E-01  3.750000E+00  7.447346E+04  1.256580E-01    2 
 5.000000E-01  5.000000E-01  3.850000E+00  7.350607E+04  1.217998E-01    2 
 5.000000E-01  5.000000E-01  3.950000E+00  7.254087E+04  1.182641E-01    2 
 5.000000E-01  5.000000E-01  4.050000E+00  7.157823E+04  1.150156E-01    2 
 5.000000E-01  5.000000E-01  4.150000E+00  7.061850E+04  1.120240E-01    2 
 5.000000E-01  5.000000E-01  4.250000E+00  6.966213E+04  1.092630E-01    2 
 5.000000E-01  5.000000E-01  4.350000E+00  6.870954E+04  1.067096E-01    2 
 5.000000E-01  5.000000E-01  4.450000E+00  6.776121E+04  1.043438E-01    2 
 5.000000E-01  5.000000E-01  4.550000E+00  6.681766E+04  1.021479E-01    2 
 5.000000E-01  5.000000E-01  4.650000E+00  6.587940E+04  1.001066E-01    2 
 5.000000E-01  5.000000E-01  4.750000E+00  6.494697E+04  9.820600E-02    2 
 5.000000E-01  5.000000E-01  4.850000E+00  6.402091E+04  9.643396E-02    2 
 5.000000E-01  5.000000E-01  4.950000E+00  6.310177E+04  9.477957E-02    2 
 5.000000E-01  5.000000E-01  5.050000E+00  6.212442E+04  3.224641E-01    1 
 5.000000E-01  5.000000E-01  5.150000E+00  6.114729E+04  3.173730E-01    1 
 5.000000E-01  5.000000E-01  5.250000E+00  6.017020E+04  3.125032E-01    1 
 5.000000E-01  5.000000E-01  5.350000E+00  5.919317E+04  3.078411E-01    1 
 5.000000E-01  5.000000E-01  5.450000E+00  5.821620E+04  3.033739E-01    1 
 5.000000E-01  5.000000E-01  5.550000E+00  5.723927E+04  2.990901E-01    1 
 5.000000E-01  5.000000E-01  5.650000E+00  5.626240E+04  2.949789E-01    1 
 5.000000E-01  5.000000E-01  5.750000E+00  5.528558E+04  2.910304E-01    1 
 5.000000E-01  5.000000E-01  5.850000E+00  5.430882E+04  2.872352E-01    1 
 5.000000E-01  5.000000E-01  5.950000E+00  5.333212E+04  2.835849E-01    1 
 5.000000E-01  5.000000E-01  6.050000E+00  5.235547E+04  2.800715E-01    1 
 5.000000E-01  5.000000E-01  6.150000E+00  5.137888E+04  2.766876E-01    1 
 5.000000E-01  5.000000E-01  6.250000E+00  5.040235E+04  2.734263E-01    1 
 5.000000E-01  5.000000E-01  6.350000E+00  4.942588E+04  2.702812E-01    1 
 5.000000E-01  5.000000E-01  6.450000E+00  4.844946E+04  2.672463E-01    1 
 5.000000E-01  5.000000E-01  6.550000E+00  4.747309E+04  2.643160E-01    1 
 5.000000E-01  5.000000E-01  6.650000E+00  4.649679E+04  2.614851E-01    1 
 5.000000E-01  5.000000E-01  6.750000E+00  4.552053E+04  2.587487E-01    1 
 5.000000E-01  5.000000E-01  6.850000E+00  4.454433E+04  2.561022E-01    1 
 5.000000E-01  5.000000E-01  6.950000E+00  4.356818E+04  2.535414E-01    1 
 5.000000E-01  5.000000E-01  7.050000E+00  4.259207E+04  2.510621E-01    1 
 5.000000E-01  5.000000E-01  7.150000E+00  4.161602E+04  2.486606E-01    1 
 5.000000E-01  5.000000E-01  7.250000E+00  4.064000E+04  2.463334E-01    1 
 5.000000E-01  5.000000E-01  7.350000E+00  3.966403E+04  2.440770E-01    1 
 5.000000E-01  5.000000E-01  7.450000E+00  3.868809E+04  2.418884E-01    1 
 5.000000E-01  5.000000E-01  7.550000E+00  3.771219E+04  2.397645E-01    1 
 5.000000E-01  5.000000E-01  7.650000E+00  3.673631E+04  2.377026E-01    1 
 5.000000E-01  5.000000E-01  7.750000E+00  3.576046E+04  2.357000E-01    1 
 5.000000E-01  5.000000E-01  7.850000E+00  3.478462E+04  2.337542E-01    1 
 5.000000E-01  5.000000E-01  7.950000E+00  3.380880E+04  2.318628E-01    1 
 5.000000E-01  5.000000E-01  8.050000E+00  3.283299E+04  2.300237E-01    1 
 5.000000E-01  5.000000E-01  8.150000E+00  3.185717E+04  2.282345E-01    1 
 5.000000E-01  5.000000E-01  8.250000E+00  3.088135E+04  2.264935E-01    1 
 5.000000E-01  5.000000E-01  8.350000E+00  2.990551E+04  2.247986E-01    1 
 5.000000E-01  5.000000E-01  8.450000E+00  2.892964E+04  2.231481E-01    1 
 5.000000E-01  5.000000E-01  8.550000E+00  2.795375E+04  2.215402E-01    1 
 5.000000E-01  5.000000E-01  8.650000E+00  2.697781E+04  2.199733E-01    1 
 5.000000E-01  5.000000E-01  8.750000E+00  2.600182E+04  2.184459E-01    1 
 5.000000E-01  5.000000E-01  8.850000E+00  2.502576E+04  2.169564E-01    1 
 5.000000E-01  5.000000E-01  8.950000E+00  2.404964E+04  2.155035E-01    1 
 5.000000E-01  5.000000E-01  9.050000E+00  2.307342E+04  2.140859E-01    1 
 5.000000E-01  5.000000E-01  9.150000E+00  2.209710E+04  2.127022E-01    1 
 5.000000E-01  5.000000E-01  9.250000E+00  2.112068E+04  2.113512E-01    1 
 5.000000E-01  5.000000E-01  9.350000E+00  2.014412E+04  2.100319E-01    1 
 5.000000E-01  5.000000E-01  9.450000E+00  1.916742E+04  2.087430E-01    1 
 5.000000E-01  5.000000E-01  9.550000E+00  1.819057E+04  2.074836E-01    1 
 5.000000E-01  5.000000E-01  9.650000E+00  1.721354E+04  2.062526E-01    1 
 5.000000E-01  5.000000E-01  9.750000E+00  1.623633E+04  2.050490E-01    1 
 5.000000E-01  5.000000E-01  9.850000E+00  1.525890E+04  2.038720E-01    1 
 5.000000E-01  5.000000E-01  9.950000E+00  1.428125E+04  2.027206E-01    1 
