TITLE = "  1.00000E+00 [y]"
VARIABLES="X [m]","Y [m]","Z [m]","Liquid Pressure [Pa]","Liquid Saturation","Material ID"
ZONE T="1.00000E+00", STRANDID=1, SOLUTIONTIME=1.00000E+00, I=1, J=1, K=100, DATAPACKING=POINT
 5.000000E-01  5.000000E-01  5.000000E-02  1.106151E+05  1.000000E+00    1 
 5.000000E-01  5.000000E-01  1.500000E-01  1.096374E+05  1.000000E+00    1 
 5.000000E-01  5.000000E-01  2.500000E-01  1.086597E+05  1.000000E+00    1 
 5.000000E-01  5.000000E-01  3.500000E-01  1.076819E+05  1.000000E+00    1 
 5.000000E-01  5.000000E-01  4.500000E-01  1.067042E+05  1.000000E+00    1 
 5.000000E-01  5.000000E-01  5.500000E-01  1.057265E+05  1.000000E+00    1 
 5.000000E-01  5.000000E-01  6.500000E-01  1.047487E+05  1.000000E+00    1 
 5.000000E-01  5.000000E-01  7.500000E-01  1.037710E+05  1.000000E+00    1 
 5.000000E-01  5.000000E-01  8.500000E-01  1.027933E+05  1.000000E+00    1 
 5.000000E-01  5.000000E-01  9.500000E-01  1.018156E+05  1.000000E+00    1 
 5.000000E-01  5.000000E-01  1.050000E+00  1.008379E+05  9.989340E-01    1 
 5.000000E-01  5.000000E-01  1.150000E+00  9.986020E+04  9.904973E-01    1 
 5.000000E-01  5.000000E-01  1.250000E+00  9.888260E+04  9.743003E-01    1 
 5.000000E-01  5.000000E-01  1.350000E+00  9.790509E+04  9.515773E-01    1 
 5.000000E-01  5.000000E-01  1.450000E+00  9.692769E+04  9.238652E-01    1 
 5.000000E-01  5.000000E-01  1.550000E+00  9.595045E+04  8.927568E-01    1 
 5.000000E-01  5.000000E-01  1.650000E+00  9.497342E+04  8.597098E-01    1 
 5.000000E-01  5.000000E-01  1.750000E+00  9.399666E+04  8.259372E-01    1 
 5.000000E-01  5.000000E-01  1.850000E+00  9.302025E+04  7.923714E-01    1 
 5.000000E-01  5.000000E-01  1.950000E+00  9.204430E+04  7.596790E-01    1 
 5.000000E-01  5.000000E-01  2.050000E+00  9.106893E+04  7.283007E-01    1 
 5.000000E-01  5.000000E-01  2.150000E+00  9.009429E+04  6.985004E-01    1 
 5.000000E-01  5.000000E-01  2.250000E+00  8.912056E+04  6.704109E-01    1 
 5.000000E-01  5.000000E-01  2.350000E+00  8.814794E+04  6.440726E-01    1 
 5.000000E-01  5.000000E-01  2.450000E+00  8.717670E+04  6.194642E-01    1 
 5.000000E-01  5.000000E-01  2.550000E+00  8.620710E+04  5.965251E-01    1 
 5.000000E-01  5.000000E-01  2.650000E+00  8.523948E+04  5.751712E-01    1 
 5.000000E-01  5.000000E-01  2.750000E+00  8.427420E+04  5.553069E-01    1 
 5.000000E-01  5.000000E-01  2.850000E+00  8.331168E+04  5.368316E-01    1 
 5.000000E-01  5.000000E-01  2.950000E+00  8.235238E+04  5.196453E-01    1 
 5.000000E-01  5.000000E-01  3.050000E+00  8.139682E+04  5.036514E-01    1 
 5.000000E-01  5.000000E-01  3.150000E+00  8.044556E+04  4.887585E-01    1 
 5.000000E-01  5.000000E-01  3.250000E+00  7.949920E+04  4.748810E-01    1 
 5.000000E-01  5.000000E-01  3.350000E+00  7.855841E+04  4.619400E-01    1 
 5.000000E-01  5.000000E-01  3.450000E+00  7.762388E+04  4.498628E-01    1 
 5.000000E-01  5.000000E-01  3.550000E+00  7.669637E+04  4.385830E-01    1 
 5.000000E-01  5.000000E-01  3.650000E+00  7.577666E+04  4.280397E-01    1 
 5.000000E-01  5.000000E-01  3.750000E+00  7.486555E+04  4.181777E-01    1 
 5.000000E-01  5.000000E-01  3.850000E+00  7.396389E+04  4.089465E-01    1 
 5.000000E-01  5.000000E-01  3.950000E+00  7.307253E+04  4.003001E-01    1 
 5.000000E-01  5.000000E-01  4.050000E+00  7.219232E+04  3.921965E-01    1 
 5.000000E-01  5.000000E-01  4.150000E+00  7.132411E+04  3.845974E-01    1 
 5.000000E-01  5.000000E-01  4.250000E+00  7.046873E+04  3.774675E-01    1 
 5.000000E-01  5.000000E-01  4.350000E+00  6.962700E+04  3.707746E-01    1 
 5.000000E-01  5.000000E-01  4.450000E+00  6.879966E+04  3.644889E-01    1 
 5.000000E-01  5.000000E-01  4.550000E+00  6.798743E+04  3.585829E-01    1 
 5.000000E-01  5.000000E-01  4.650000E+00  6.719094E+04  3.530313E-01    1 
 5.000000E-01  5.000000E-01  4.750000E+00  6.641077E+04  3.478104E-01    1 
 5.000000E-01  5.000000E-01  4.850000E+00  6.564739E+04  3.428982E-01    1 
 5.000000E-01  5.000000E-01  4.950000E+00  6.490118E+04  3.382742E-01    1 
 5.000000E-01  5.000000E-01  5.050000E+00  6.417242E+04  3.339190E-01    1 
 5.000000E-01  5.000000E-01  5.150000E+00  6.346128E+04  3.298147E-01    1 
 5.000000E-01  5.000000E-01  5.250000E+00  6.276782E+04  3.259441E-01    1 
 5.000000E-01  5.000000E-01  5.350000E+00  6.209198E+04  3.222914E-01    1 
 5.000000E-01  5.000000E-01  5.450000E+00  6.143361E+04  3.188413E-01    1 
 5.000000E-01  5.000000E-01  5.550000E+00  6.079242E+04  3.155795E-01    1 
 5.000000E-01  5.000000E-01  5.650000E+00  6.016804E+04  3.124927E-01    1 
 5.000000E-01  5.000000E-01  5.750000E+00  5.955999E+04  3.095679E-01    1 
 5.000000E-01  5.000000E-01  5.850000E+00  5.896769E+04  3.067932E-01    1 
 5.000000E-01  5.000000E-01  5.950000E+00  5.839048E+04  3.041571E-01    1 
 5.000000E-01  5.000000E-01  6.050000E+00  5.782763E+04  3.016488E-01    1 
 5.000000E-01  5.000000E-01  6.150000E+00  5.727834E+04  2.992580E-01    1 
 5.000000E-01  5.000000E-01  6.250000E+00  5.674173E+04  2.969753E-01    1 
 5.000000E-01  5.000000E-01  6.350000E+00  5.621691E+04  2.947915E-01    1 
 5.000000E-01  5.000000E-01  6.450000E+00  5.570290E+04  2.926980E-01    1 
 5.000000E-01  5.000000E-01  6.550000E+00  5.519872E+04  2.906868E-01    1 
 5.000000E-01  5.000000E-01  6.650000E+00  5.470336E+04  2.887503E-01    1 
 5.000000E-01  5.000000E-01  6.750000E+00  5.421576E+04  2.868813E-01    1 
 5.000000E-01  5.000000E-01  6.850000E+00  5.373488E+04  2.850732E-01    1 
 5.000000E-01  5.000000E-01  6.950000E+00  5.325964E+04  2.833196E-01    1 
 5.000000E-01  5.000000E-01  7.050000E+00  5.278897E+04  2.816146E-01    1 
 5.000000E-01  5.000000E-01  7.150000E+00  5.232179E+04  2.799527E-01    1 
 5.000000E-01  5.000000E-01  7.250000E+00  5.185702E+04  2.783287E-01    1 
 5.000000E-01  5.000000E-01  7.350000E+00  5.139357E+04  2.767376E-01    1 
 5.000000E-01  5.000000E-01  7.450000E+00  5.093035E+04  2.751749E-01    1 
 5.000000E-01  5.000000E-01  7.550000E+00  5.046628E+04  2.736362E-01    1 
 5.000000E-01  5.000000E-01  7.650000E+00  5.000024E+04  2.721174E-01    1 
 5.000000E-01  5.000000E-01  7.750000E+00  4.953114E+04  2.706149E-01    1 
 5.000000E-01  5.000000E-01  7.850000E+00  4.905787E+04  2.691247E-01    1 
 5.000000E-01  5.000000E-01  7.950000E+00  4.857929E+04  2.676437E-01    1 
 5.000000E-01  5.000000E-01  8.050000E+00  4.809426E+04  2.661685E-01    1 
 5.000000E-01  5.000000E-01  8.150000E+00  4.760160E+04  2.646959E-01    1 
 5.000000E-01  5.000000E-01  8.250000E+00  4.710011E+04  2.632231E-01    1 
 5.000000E-01  5.000000E-01  8.350000E+00  4.658855E+04  2.617471E-01    1 
 5.000000E-01  5.000000E-01  8.450000E+00  4.606561E+04  2.602652E-01    1 
 5.000000E-01  5.000000E-01  8.550000E+00  4.552997E+04  2.587747E-01    1 
 5.000000E-01  5.000000E-01  8.650000E+00  4.498020E+04  2.572731E-01    1 
 5.000000E-01  5.000000E-01  8.750000E+00  4.441481E+04  2.557576E-01    1 
 5.000000E-01  5.000000E-01  8.850000E+00  4.383222E+04  2.542259E-01    1 
 5.000000E-01  5.000000E-01  8.950000E+00  4.323073E+04  2.526752E-01    1 
 5.000000E-01  5.000000E-01  9.050000E+00  4.260852E+04  2.511032E-01    1 
 5.000000E-01  5.000000E-01  9.150000E+00  4.196363E+04  2.495072E-01    1 
 5.000000E-01  5.000000E-01  9.250000E+00  4.129392E+04  2.478846E-01    1 
 5.000000E-01  5.000000E-01  9.350000E+00  4.059705E+04  2.462326E-01    1 
 5.000000E-01  5.000000E-01  9.450000E+00  3.987045E+04  2.445485E-01    1 
 5.000000E-01  5.000000E-01  9.550000E+00  3.911128E+04  2.428293E-01    1 
 5.000000E-01  5.000000E-01  9.650000E+00  3.831638E+04  2.410720E-01    1 
 5.000000E-01  5.000000E-01  9.750000E+00  3.748223E+04  2.392732E-01    1 
 5.000000E-01  5.000000E-01  9.850000E+00  3.660486E+04  2.374295E-01    1 
 5.000000E-01  5.000000E-01  9.950000E+00  3.567978E+04  2.355370E-01    1 
