TITLE = "  1.00000E+00 [y]"
VARIABLES="X [m]","Y [m]","Z [m]","Liquid Pressure [Pa]","Liquid Saturation","Material ID"
ZONE T="1.00000E+00", STRANDID=1, SOLUTIONTIME=1.00000E+00, I=1, J=1, K=100, DATAPACKING=POINT
 5.000000E-01  5.000000E-01  5.000000E-02  1.692896E+05  1.000000E+00    1 
 5.000000E-01  5.000000E-01  1.500000E-01  1.683114E+05  1.000000E+00    1 
 5.000000E-01  5.000000E-01  2.500000E-01  1.673332E+05  1.000000E+00    1 
 5.000000E-01  5.000000E-01  3.500000E-01  1.663550E+05  1.000000E+00    1 
 5.000000E-01  5.000000E-01  4.500000E-01  1.653768E+05  1.000000E+00    1 
 5.000000E-01  5.000000E-01  5.500000E-01  1.643986E+05  1.000000E+00    1 
 5.000000E-01  5.000000E-01  6.500000E-01  1.634204E+05  1.000000E+00    1 
 5.000000E-01  5.000000E-01  7.500000E-01  1.624422E+05  1.000000E+00    1 
 5.000000E-01  5.000000E-01  8.500000E-01  1.614640E+05  1.000000E+00    1 
 5.000000E-01  5.000000E-01  9.500000E-01  1.604858E+05  1.000000E+00    1 
 5.000000E-01  5.000000E-01  1.050000E+00  1.595076E+05  1.000000E+00    1 
 5.000000E-01  5.000000E-01  1.150000E+00  1.585294E+05  1.000000E+00    1 
 5.000000E-01  5.000000E-01  1.250000E+00  1.575512E+05  1.000000E+00    1 
 5.000000E-01  5.000000E-01  1.350000E+00  1.565730E+05  1.000000E+00    1 
 5.000000E-01  5.000000E-01  1.450000E+00  1.555948E+05  1.000000E+00    1 
 5.000000E-01  5.000000E-01  1.550000E+00  1.546166E+05  1.000000E+00    1 
 5.000000E-01  5.000000E-01  1.650000E+00  1.536384E+05  1.000000E+00    1 
 5.000000E-01  5.000000E-01  1.750000E+00  1.526602E+05  1.000000E+00    1 
 5.000000E-01  5.000000E-01  1.850000E+00  1.516820E+05  1.000000E+00    1 
 5.000000E-01  5.000000E-01  1.950000E+00  1.507038E+05  1.000000E+00    1 
 5.000000E-01  5.000000E-01  2.050000E+00  1.497256E+05  1.000000E+00    1 
 5.000000E-01  5.000000E-01  2.150000E+00  1.487474E+05  1.000000E+00    1 
 5.000000E-01  5.000000E-01  2.250000E+00  1.477692E+05  1.000000E+00    1 
 5.000000E-01  5.000000E-01  2.350000E+00  1.467910E+05  1.000000E+00    1 
 5.000000E-01  5.000000E-01  2.450000E+00  1.458128E+05  1.000000E+00    1 
 5.000000E-01  5.000000E-01  2.550000E+00  1.448346E+05  1.000000E+00    1 
 5.000000E-01  5.000000E-01  2.650000E+00  1.438564E+05  1.000000E+00    1 
 5.000000E-01  5.000000E-01  2.750000E+00  1.428782E+05  1.000000E+00    1 
 5.000000E-01  5.000000E-01  2.850000E+00  1.419000E+05  1.000000E+00    1 
 5.000000E-01  5.000000E-01  2.950000E+00  1.409218E+05  1.000000E+00    1 
 5.000000E-01  5.000000E-01  3.050000E+00  1.399436E+05  1.000000E+00    1 
 5.000000E-01  5.000000E-01  3.150000E+00  1.389654E+05  1.000000E+00    1 
 5.000000E-01  5.000000E-01  3.250000E+00  1.379872E+05  1.000000E+00    1 
 5.000000E-01  5.000000E-01  3.350000E+00  1.370090E+05  1.000000E+00    1 
 5.000000E-01  5.000000E-01  3.450000E+00  1.360308E+05  1.000000E+00    1 
 5.000000E-01  5.000000E-01  3.550000E+00  1.350526E+05  1.000000E+00    1 
 5.000000E-01  5.000000E-01  3.650000E+00  1.340744E+05  1.000000E+00    1 
 5.000000E-01  5.000000E-01  3.750000E+00  1.330962E+05  1.000000E+00    1 
 5.000000E-01  5.000000E-01  3.850000E+00  1.321180E+05  1.000000E+00    1 
 5.000000E-01  5.000000E-01  3.950000E+00  1.311399E+05  1.000000E+00    1 
 5.000000E-01  5.000000E-01  4.050000E+00  1.301617E+05  1.000000E+00    1 
 5.000000E-01  5.000000E-01  4.150000E+00  1.291835E+05  1.000000E+00    1 
 5.000000E-01  5.000000E-01  4.250000E+00  1.282053E+05  1.000000E+00    1 
 5.000000E-01  5.000000E-01  4.350000E+00  1.272271E+05  1.000000E+00    1 
 5.000000E-01  5.000000E-01  4.450000E+00  1.262489E+05  1.000000E+00    1 
 5.000000E-01  5.000000E-01  4.550000E+00  1.252707E+05  1.000000E+00    1 
 5.000000E-01  5.000000E-01  4.650000E+00  1.242925E+05  1.000000E+00    1 
 5.000000E-01  5.000000E-01  4.750000E+00  1.233143E+05  1.000000E+00    1 
 5.000000E-01  5.000000E-01  4.850000E+00  1.223362E+05  1.000000E+00    1 
 5.000000E-01  5.000000E-01  4.950000E+00  1.213580E+05  1.000000E+00    1 
 5.000000E-01  5.000000E-01  5.050000E+00  1.203798E+05  1.000000E+00    1 
 5.000000E-01  5.000000E-01  5.150000E+00  1.194016E+05  1.000000E+00    1 
 5.000000E-01  5.000000E-01  5.250000E+00  1.184234E+05  1.000000E+00    1 
 5.000000E-01  5.000000E-01  5.350000E+00  1.174452E+05  1.000000E+00    1 
 5.000000E-01  5.000000E-01  5.450000E+00  1.164670E+05  1.000000E+00    1 
 5.000000E-01  5.000000E-01  5.550000E+00  1.154889E+05  1.000000E+00    1 
 5.000000E-01  5.000000E-01  5.650000E+00  1.145107E+05  1.000000E+00    1 
 5.000000E-01  5.000000E-01  5.750000E+00  1.135325E+05  1.000000E+00    1 
 5.000000E-01  5.000000E-01  5.850000E+00  1.125543E+05  1.000000E+00    1 
 5.000000E-01  5.000000E-01  5.950000E+00  1.115761E+05  1.000000E+00    1 
 5.000000E-01  5.000000E-01  6.050000E+00  1.105979E+05  1.000000E+00    1 
 5.000000E-01  5.000000E-01  6.150000E+00  1.096198E+05  1.000000E+00    1 
 5.000000E-01  5.000000E-01  6.250000E+00  1.086416E+05  1.000000E+00    1 
 5.000000E-01  5.000000E-01  6.350000E+00  1.076634E+05  1.000000E+00    1 
 5.000000E-01  5.000000E-01  6.450000E+00  1.066852E+05  1.000000E+00    1 
 5.000000E-01  5.000000E-01  6.550000E+00  1.057070E+05  1.000000E+00    1 
 5.000000E-01  5.000000E-01  6.650000E+00  1.047289E+05  1.000000E+00    1 
 5.000000E-01  5.000000E-01  6.750000E+00  1.037507E+05  1.000000E+00    1 
 5.000000E-01  5.000000E-01  6.850000E+00  1.027725E+05  1.000000E+00    1 
 5.000000E-01  5.000000E-01  6.950000E+00  1.017943E+05  1.000000E+00    1 
 5.000000E-01  5.000000E-01  7.050000E+00  1.008161E+05  9.988371E-01    1 
 5.000000E-01  5.000000E-01  7.150000E+00  9.983794E+04  9.902110E-01    1 
 5.000000E-01  5.000000E-01  7.250000E+00  9.885965E+04  9.738361E-01    1 
 5.000000E-01  5.000000E-01  7.350000E+00  9.788126E+04  9.509546E-01    1 
 5.000000E-01  5.000000E-01  7.450000E+00  9.690273E+04  9.231063E-01    1 
 5.000000E-01  5.000000E-01  7.550000E+00  9.592400E+04  8.918818E-01    1 
 5.000000E-01  5.000000E-01  7.650000E+00  9.494501E+04  8.587329E-01    1 
 5.000000E-01  5.000000E-01  7.750000E+00  9.396568E+04  8.248651E-01    1 
 5.000000E-01  5.000000E-01  7.850000E+00  9.298589E+04  7.912026E-01    1 
 5.000000E-01  5.000000E-01  7.950000E+00  9.200550E+04  7.584038E-01    1 
 5.000000E-01  5.000000E-01  8.050000E+00  9.102434E+04  7.269022E-01    1 
 5.000000E-01  5.000000E-01  8.150000E+00  9.004221E+04  6.969548E-01    1 
 5.000000E-01  5.000000E-01  8.250000E+00  8.905884E+04  6.686885E-01    1 
 5.000000E-01  5.000000E-01  8.350000E+00  8.807392E+04  6.421381E-01    1 
 5.000000E-01  5.000000E-01  8.450000E+00  8.708709E+04  6.172772E-01    1 
 5.000000E-01  5.000000E-01  8.550000E+00  8.609791E+04  5.940402E-01    1 
 5.000000E-01  5.000000E-01  8.650000E+00  8.510587E+04  5.723384E-01    1 
 5.000000E-01  5.000000E-01  8.750000E+00  8.411037E+04  5.520710E-01    1 
 5.000000E-01  5.000000E-01  8.850000E+00  8.311071E+04  5.331329E-01    1 
 5.000000E-01  5.000000E-01  8.950000E+00  8.210610E+04  5.154193E-01    1 
 5.000000E-01  5.000000E-01  9.050000E+00  8.109560E+04  4.988284E-01    1 
 5.000000E-01  5.000000E-01  9.150000E+00  8.007815E+04  4.832638E-01    1 
 5.000000E-01  5.000000E-01  9.250000E+00  7.905251E+04  4.686347E-01    1 
 5.000000E-01  5.000000E-01  9.350000E+00  7.801730E+04  4.548567E-01    1 
 5.000000E-01  5.000000E-01  9.450000E+00  7.697089E+04  4.418515E-01    1 
 5.000000E-01  5.000000E-01  9.550000E+00  7.591143E+04  4.295466E-01    1 
 5.000000E-01  5.000000E-01  9.650000E+00  7.483679E+04  4.178753E-01    1 
 5.000000E-01  5.000000E-01  9.750000E+00  7.374452E+04  4.067757E-01    1 
 5.000000E-01  5.000000E-01  9.850000E+00  7.263177E+04  3.961903E-01    1 
 5.000000E-01  5.000000E-01  9.950000E+00  7.149526E+04  3.860658E-01    1 
