TITLE = "  1.00000E-01 [y]"
VARIABLES="X [m]","Y [m]","Z [m]","Liquid Pressure [Pa]","Liquid Saturation","Material ID"
ZONE T="1.00000E-01", STRANDID=1, SOLUTIONTIME=1.00000E-01, I=1, J=1, K=100, DATAPACKING=POINT
 5.000000E-01  5.000000E-01  5.000000E-02  1.692899E+05  1.000000E+00    1 
 5.000000E-01  5.000000E-01  1.500000E-01  1.683123E+05  1.000000E+00    1 
 5.000000E-01  5.000000E-01  2.500000E-01  1.673346E+05  1.000000E+00    1 
 5.000000E-01  5.000000E-01  3.500000E-01  1.663570E+05  1.000000E+00    1 
 5.000000E-01  5.000000E-01  4.500000E-01  1.653793E+05  1.000000E+00    1 
 5.000000E-01  5.000000E-01  5.500000E-01  1.644017E+05  1.000000E+00    1 
 5.000000E-01  5.000000E-01  6.500000E-01  1.634240E+05  1.000000E+00    1 
 5.000000E-01  5.000000E-01  7.500000E-01  1.624464E+05  1.000000E+00    1 
 5.000000E-01  5.000000E-01  8.500000E-01  1.614687E+05  1.000000E+00    1 
 5.000000E-01  5.000000E-01  9.500000E-01  1.604911E+05  1.000000E+00    1 
 5.000000E-01  5.000000E-01  1.050000E+00  1.595134E+05  1.000000E+00    1 
 5.000000E-01  5.000000E-01  1.150000E+00  1.585358E+05  1.000000E+00    1 
 5.000000E-01  5.000000E-01  1.250000E+00  1.575581E+05  1.000000E+00    1 
 5.000000E-01  5.000000E-01  1.350000E+00  1.565805E+05  1.000000E+00    1 
 5.000000E-01  5.000000E-01  1.450000E+00  1.556028E+05  1.000000E+00    1 
 5.000000E-01  5.000000E-01  1.550000E+00  1.546252E+05  1.000000E+00    1 
 5.000000E-01  5.000000E-01  1.650000E+00  1.536476E+05  1.000000E+00    1 
 5.000000E-01  5.000000E-01  1.750000E+00  1.526699E+05  1.000000E+00    1 
 5.000000E-01  5.000000E-01  1.850000E+00  1.516923E+05  1.000000E+00    1 
 5.000000E-01  5.000000E-01  1.950000E+00  1.507146E+05  1.000000E+00    1 
 5.000000E-01  5.000000E-01  2.050000E+00  1.497370E+05  1.000000E+00    1 
 5.000000E-01  5.000000E-01  2.150000E+00  1.487594E+05  1.000000E+00    1 
 5.000000E-01  5.000000E-01  2.250000E+00  1.477817E+05  1.000000E+00    1 
 5.000000E-01  5.000000E-01  2.350000E+00  1.468041E+05  1.000000E+00    1 
 5.000000E-01  5.000000E-01  2.450000E+00  1.458264E+05  1.000000E+00    1 
 5.000000E-01  5.000000E-01  2.550000E+00  1.448488E+05  1.000000E+00    1 
 5.000000E-01  5.000000E-01  2.650000E+00  1.438712E+05  1.000000E+00    1 
 5.000000E-01  5.000000E-01  2.750000E+00  1.428935E+05  1.000000E+00    1 
 5.000000E-01  5.000000E-01  2.850000E+00  1.419159E+05  1.000000E+00    1 
 5.000000E-01  5.000000E-01  2.950000E+00  1.409382E+05  1.000000E+00    1 
 5.000000E-01  5.000000E-01  3.050000E+00  1.399606E+05  1.000000E+00    1 
 5.000000E-01  5.000000E-01  3.150000E+00  1.389830E+05  1.000000E+00    1 
 5.000000E-01  5.000000E-01  3.250000E+00  1.380053E+05  1.000000E+00    1 
 5.000000E-01  5.000000E-01  3.350000E+00  1.370277E+05  1.000000E+00    1 
 5.000000E-01  5.000000E-01  3.450000E+00  1.360501E+05  1.000000E+00    1 
 5.000000E-01  5.000000E-01  3.550000E+00  1.350724E+05  1.000000E+00    1 
 5.000000E-01  5.000000E-01  3.650000E+00  1.340948E+05  1.000000E+00    1 
 5.000000E-01  5.000000E-01  3.750000E+00  1.331172E+05  1.000000E+00    1 
 5.000000E-01  5.000000E-01  3.850000E+00  1.321395E+05  1.000000E+00    1 
 5.000000E-01  5.000000E-01  3.950000E+00  1.311619E+05  1.000000E+00    1 
 5.000000E-01  5.000000E-01  4.050000E+00  1.301843E+05  1.000000E+00    1 
 5.000000E-01  5.000000E-01  4.150000E+00  1.292066E+05  1.000000E+00    1 
 5.000000E-01  5.000000E-01  4.250000E+00  1.282290E+05  1.000000E+00    1 
 5.000000E-01  5.000000E-01  4.350000E+00  1.272514E+05  1.000000E+00    1 
 5.000000E-01  5.000000E-01  4.450000E+00  1.262737E+05  1.000000E+00    1 
 5.000000E-01  5.000000E-01  4.550000E+00  1.252961E+05  1.000000E+00    1 
 5.000000E-01  5.000000E-01  4.650000E+00  1.243185E+05  1.000000E+00    1 
 5.000000E-01  5.000000E-01  4.750000E+00  1.233409E+05  1.000000E+00    1 
 5.000000E-01  5.000000E-01  4.850000E+00  1.223632E+05  1.000000E+00    1 
 5.000000E-01  5.000000E-01  4.950000E+00  1.213856E+05  1.000000E+00    1 
 5.000000E-01  5.000000E-01  5.050000E+00  1.204080E+05  1.000000E+00    1 
 5.000000E-01  5.000000E-01  5.150000E+00  1.194303E+05  1.000000E+00    1 
 5.000000E-01  5.000000E-01  5.250000E+00  1.184527E+05  1.000000E+00    1 
 5.000000E-01  5.000000E-01  5.350000E+00  1.174751E+05  1.000000E+00    1 
 5.000000E-01  5.000000E-01  5.450000E+00  1.164975E+05  1.000000E+00    1 
 5.000000E-01  5.000000E-01  5.550000E+00  1.155198E+05  1.000000E+00    1 
 5.000000E-01  5.000000E-01  5.650000E+00  1.145422E+05  1.000000E+00    1 
 5.000000E-01  5.000000E-01  5.750000E+00  1.135646E+05  1.000000E+00    1 
 5.000000E-01  5.000000E-01  5.850000E+00  1.125870E+05  1.000000E+00    1 
 5.000000E-01  5.000000E-01  5.950000E+00  1.116093E+05  1.000000E+00    1 
 5.000000E-01  5.000000E-01  6.050000E+00  1.106317E+05  1.000000E+00    1 
 5.000000E-01  5.000000E-01  6.150000E+00  1.096541E+05  1.000000E+00    1 
 5.000000E-01  5.000000E-01  6.250000E+00  1.086765E+05  1.000000E+00    1 
 5.000000E-01  5.000000E-01  6.350000E+00  1.076988E+05  1.000000E+00    1 
 5.000000E-01  5.000000E-01  6.450000E+00  1.067212E+05  1.000000E+00    1 
 5.000000E-01  5.000000E-01  6.550000E+00  1.057436E+05  1.000000E+00    1 
 5.000000E-01  5.000000E-01  6.650000E+00  1.047660E+05  1.000000E+00    1 
 5.000000E-01  5.000000E-01  6.750000E+00  1.037884E+05  1.000000E+00    1 
 5.000000E-01  5.000000E-01  6.850000E+00  1.028107E+05  1.000000E+00    1 
 5.000000E-01  5.000000E-01  6.950000E+00  1.018331E+05  1.000000E+00    1 
 5.000000E-01  5.000000E-01  7.050000E+00  1.008555E+05  9.990098E-01    1 
 5.000000E-01  5.000000E-01  7.150000E+00  9.987800E+04  9.907233E-01    1 
 5.000000E-01  5.000000E-01  7.250000E+00  9.890059E+04  9.746617E-01    1 
 5.000000E-01  5.000000E-01  7.350000E+00  9.792331E+04  9.520515E-01    1 
 5.000000E-01  5.000000E-01  7.450000E+00  9.694622E+04  9.244270E-01    1 
 5.000000E-01  5.000000E-01  7.550000E+00  9.596938E+04  8.933822E-01    1 
 5.000000E-01  5.000000E-01  7.650000E+00  9.499287E+04  8.603785E-01    1 
 5.000000E-01  5.000000E-01  7.750000E+00  9.401680E+04  8.266346E-01    1 
 5.000000E-01  5.000000E-01  7.850000E+00  9.304131E+04  7.930884E-01    1 
 5.000000E-01  5.000000E-01  7.950000E+00  9.206656E+04  7.604114E-01    1 
 5.000000E-01  5.000000E-01  8.050000E+00  9.109274E+04  7.290490E-01    1 
 5.000000E-01  5.000000E-01  8.150000E+00  9.012010E+04  6.992684E-01    1 
 5.000000E-01  5.000000E-01  8.250000E+00  8.914894E+04  6.712053E-01    1 
 5.000000E-01  5.000000E-01  8.350000E+00  8.817959E+04  6.449026E-01    1 
 5.000000E-01  5.000000E-01  8.450000E+00  8.721245E+04  6.203408E-01    1 
 5.000000E-01  5.000000E-01  8.550000E+00  8.624799E+04  5.974607E-01    1 
 5.000000E-01  5.000000E-01  8.650000E+00  8.528674E+04  5.761800E-01    1 
 5.000000E-01  5.000000E-01  8.750000E+00  8.432929E+04  5.564038E-01    1 
 5.000000E-01  5.000000E-01  8.850000E+00  8.337633E+04  5.380329E-01    1 
 5.000000E-01  5.000000E-01  8.950000E+00  8.242861E+04  5.209684E-01    1 
 5.000000E-01  5.000000E-01  9.050000E+00  8.148696E+04  5.051146E-01    1 
 5.000000E-01  5.000000E-01  9.150000E+00  8.055230E+04  4.903812E-01    1 
 5.000000E-01  5.000000E-01  9.250000E+00  7.962563E+04  4.766836E-01    1 
 5.000000E-01  5.000000E-01  9.350000E+00  7.870801E+04  4.639437E-01    1 
 5.000000E-01  5.000000E-01  9.450000E+00  7.780059E+04  4.520899E-01    1 
 5.000000E-01  5.000000E-01  9.550000E+00  7.690457E+04  4.410565E-01    1 
 5.000000E-01  5.000000E-01  9.650000E+00  7.602121E+04  4.307836E-01    1 
 5.000000E-01  5.000000E-01  9.750000E+00  7.515182E+04  4.212166E-01    1 
 5.000000E-01  5.000000E-01  9.850000E+00  7.429773E+04  4.123055E-01    1 
 5.000000E-01  5.000000E-01  9.950000E+00  7.346028E+04  4.040050E-01    1 
