TITLE = "  1.00000E-02 [y]"
VARIABLES="X [m]","Y [m]","Z [m]","Liquid Pressure [Pa]","Liquid Saturation","Material ID"
ZONE T="1.00000E-02", STRANDID=1, SOLUTIONTIME=1.00000E-02, I=1, J=1, K=100, DATAPACKING=POINT
 5.000000E-01  5.000000E-01  5.000000E-02  1.692898E+05  1.000000E+00    1 
 5.000000E-01  5.000000E-01  1.500000E-01  1.683119E+05  1.000000E+00    1 
 5.000000E-01  5.000000E-01  2.500000E-01  1.673340E+05  1.000000E+00    1 
 5.000000E-01  5.000000E-01  3.500000E-01  1.663562E+05  1.000000E+00    1 
 5.000000E-01  5.000000E-01  4.500000E-01  1.653783E+05  1.000000E+00    1 
 5.000000E-01  5.000000E-01  5.500000E-01  1.644004E+05  1.000000E+00    1 
 5.000000E-01  5.000000E-01  6.500000E-01  1.634226E+05  1.000000E+00    1 
 5.000000E-01  5.000000E-01  7.500000E-01  1.624447E+05  1.000000E+00    1 
 5.000000E-01  5.000000E-01  8.500000E-01  1.614668E+05  1.000000E+00    1 
 5.000000E-01  5.000000E-01  9.500000E-01  1.604890E+05  1.000000E+00    1 
 5.000000E-01  5.000000E-01  1.050000E+00  1.595111E+05  1.000000E+00    1 
 5.000000E-01  5.000000E-01  1.150000E+00  1.585332E+05  1.000000E+00    1 
 5.000000E-01  5.000000E-01  1.250000E+00  1.575553E+05  1.000000E+00    1 
 5.000000E-01  5.000000E-01  1.350000E+00  1.565775E+05  1.000000E+00    1 
 5.000000E-01  5.000000E-01  1.450000E+00  1.555996E+05  1.000000E+00    1 
 5.000000E-01  5.000000E-01  1.550000E+00  1.546217E+05  1.000000E+00    1 
 5.000000E-01  5.000000E-01  1.650000E+00  1.536439E+05  1.000000E+00    1 
 5.000000E-01  5.000000E-01  1.750000E+00  1.526660E+05  1.000000E+00    1 
 5.000000E-01  5.000000E-01  1.850000E+00  1.516881E+05  1.000000E+00    1 
 5.000000E-01  5.000000E-01  1.950000E+00  1.507103E+05  1.000000E+00    1 
 5.000000E-01  5.000000E-01  2.050000E+00  1.497324E+05  1.000000E+00    1 
 5.000000E-01  5.000000E-01  2.150000E+00  1.487546E+05  1.000000E+00    1 
 5.000000E-01  5.000000E-01  2.250000E+00  1.477767E+05  1.000000E+00    1 
 5.000000E-01  5.000000E-01  2.350000E+00  1.467988E+05  1.000000E+00    1 
 5.000000E-01  5.000000E-01  2.450000E+00  1.458210E+05  1.000000E+00    1 
 5.000000E-01  5.000000E-01  2.550000E+00  1.448431E+05  1.000000E+00    1 
 5.000000E-01  5.000000E-01  2.650000E+00  1.438652E+05  1.000000E+00    1 
 5.000000E-01  5.000000E-01  2.750000E+00  1.428874E+05  1.000000E+00    1 
 5.000000E-01  5.000000E-01  2.850000E+00  1.419095E+05  1.000000E+00    1 
 5.000000E-01  5.000000E-01  2.950000E+00  1.409317E+05  1.000000E+00    1 
 5.000000E-01  5.000000E-01  3.050000E+00  1.399538E+05  1.000000E+00    1 
 5.000000E-01  5.000000E-01  3.150000E+00  1.389759E+05  1.000000E+00    1 
 5.000000E-01  5.000000E-01  3.250000E+00  1.379981E+05  1.000000E+00    1 
 5.000000E-01  5.000000E-01  3.350000E+00  1.370202E+05  1.000000E+00    1 
 5.000000E-01  5.000000E-01  3.450000E+00  1.360424E+05  1.000000E+00    1 
 5.000000E-01  5.000000E-01  3.550000E+00  1.350645E+05  1.000000E+00    1 
 5.000000E-01  5.000000E-01  3.650000E+00  1.340866E+05  1.000000E+00    1 
 5.000000E-01  5.000000E-01  3.750000E+00  1.331088E+05  1.000000E+00    1 
 5.000000E-01  5.000000E-01  3.850000E+00  1.321309E+05  1.000000E+00    1 
 5.000000E-01  5.000000E-01  3.950000E+00  1.311531E+05  1.000000E+00    1 
 5.000000E-01  5.000000E-01  4.050000E+00  1.301752E+05  1.000000E+00    1 
 5.000000E-01  5.000000E-01  4.150000E+00  1.291974E+05  1.000000E+00    1 
 5.000000E-01  5.000000E-01  4.250000E+00  1.282195E+05  1.000000E+00    1 
 5.000000E-01  5.000000E-01  4.350000E+00  1.272417E+05  1.000000E+00    1 
 5.000000E-01  5.000000E-01  4.450000E+00  1.262638E+05  1.000000E+00    1 
 5.000000E-01  5.000000E-01  4.550000E+00  1.252859E+05  1.000000E+00    1 
 5.000000E-01  5.000000E-01  4.650000E+00  1.243081E+05  1.000000E+00    1 
 5.000000E-01  5.000000E-01  4.750000E+00  1.233302E+05  1.000000E+00    1 
 5.000000E-01  5.000000E-01  4.850000E+00  1.223524E+05  1.000000E+00    1 
 5.000000E-01  5.000000E-01  4.950000E+00  1.213745E+05  1.000000E+00    1 
 5.000000E-01  5.000000E-01  5.050000E+00  1.203967E+05  1.000000E+00    1 
 5.000000E-01  5.000000E-01  5.150000E+00  1.194188E+05  1.000000E+00    1 
 5.000000E-01  5.000000E-01  5.250000E+00  1.184410E+05  1.000000E+00    1 
 5.000000E-01  5.000000E-01  5.350000E+00  1.174631E+05  1.000000E+00    1 
 5.000000E-01  5.000000E-01  5.450000E+00  1.164853E+05  1.000000E+00    1 
 5.000000E-01  5.000000E-01  5.550000E+00  1.155074E+05  1.000000E+00    1 
 5.000000E-01  5.000000E-01  5.650000E+00  1.145296E+05  1.000000E+00    1 
 5.000000E-01  5.000000E-01  5.750000E+00  1.135517E+05  1.000000E+00    1 
 5.000000E-01  5.000000E-01  5.850000E+00  1.125739E+05  1.000000E+00    1 
 5.000000E-01  5.000000E-01  5.950000E+00  1.115960E+05  1.000000E+00    1 
 5.000000E-01  5.000000E-01  6.050000E+00  1.106182E+05  1.000000E+00    1 
 5.000000E-01  5.000000E-01  6.150000E+00  1.096403E+05  1.000000E+00    1 
 5.000000E-01  5.000000E-01  6.250000E+00  1.086625E+05  1.000000E+00    1 
 5.000000E-01  5.000000E-01  6.350000E+00  1.076847E+05  1.000000E+00    1 
 5.000000E-01  5.000000E-01  6.450000E+00  1.067068E+05  1.000000E+00    1 
 5.000000E-01  5.000000E-01  6.550000E+00  1.057290E+05  1.000000E+00    1 
 5.000000E-01  5.000000E-01  6.650000E+00  1.047511E+05  1.000000E+00    1 
 5.000000E-01  5.000000E-01  6.750000E+00  1.037733E+05  1.000000E+00    1 
 5.000000E-01  5.000000E-01  6.850000E+00  1.027954E+05  1.000000E+00    1 
 5.000000E-01  5.000000E-01  6.950000E+00  1.018176E+05  1.000000E+00    1 
 5.000000E-01  5.000000E-01  7.050000E+00  1.008397E+05  9.989423E-01    1 
 5.000000E-01  5.000000E-01  7.150000E+00  9.986193E+04  9.905193E-01    1 
 5.000000E-01  5.000000E-01  7.250000E+00  9.888412E+04  9.743310E-01    1 
 5.000000E-01  5.000000E-01  7.350000E+00  9.790635E+04  9.516102E-01    1 
 5.000000E-01  5.000000E-01  7.450000E+00  9.692862E+04  9.238933E-01    1 
 5.000000E-01  5.000000E-01  7.550000E+00  9.595094E+04  8.927730E-01    1 
 5.000000E-01  5.000000E-01  7.650000E+00  9.497334E+04  8.597071E-01    1 
 5.000000E-01  5.000000E-01  7.750000E+00  9.399585E+04  8.259091E-01    1 
 5.000000E-01  5.000000E-01  7.850000E+00  9.301850E+04  7.923118E-01    1 
 5.000000E-01  5.000000E-01  7.950000E+00  9.204134E+04  7.595817E-01    1 
 5.000000E-01  5.000000E-01  8.050000E+00  9.106444E+04  7.281599E-01    1 
 5.000000E-01  5.000000E-01  8.150000E+00  9.008788E+04  6.983101E-01    1 
 5.000000E-01  5.000000E-01  8.250000E+00  8.911177E+04  6.701653E-01    1 
 5.000000E-01  5.000000E-01  8.350000E+00  8.813624E+04  6.437661E-01    1 
 5.000000E-01  5.000000E-01  8.450000E+00  8.716147E+04  6.190917E-01    1 
 5.000000E-01  5.000000E-01  8.550000E+00  8.618769E+04  5.960820E-01    1 
 5.000000E-01  5.000000E-01  8.650000E+00  8.521519E+04  5.746543E-01    1 
 5.000000E-01  5.000000E-01  8.750000E+00  8.424436E+04  5.547146E-01    1 
 5.000000E-01  5.000000E-01  8.850000E+00  8.327567E+04  5.361649E-01    1 
 5.000000E-01  5.000000E-01  8.950000E+00  8.230976E+04  5.189087E-01    1 
 5.000000E-01  5.000000E-01  9.050000E+00  8.134745E+04  5.028540E-01    1 
 5.000000E-01  5.000000E-01  9.150000E+00  8.038978E+04  4.879153E-01    1 
 5.000000E-01  5.000000E-01  9.250000E+00  7.943806E+04  4.740150E-01    1 
 5.000000E-01  5.000000E-01  9.350000E+00  7.849397E+04  4.610831E-01    1 
 5.000000E-01  5.000000E-01  9.450000E+00  7.755955E+04  4.490584E-01    1 
 5.000000E-01  5.000000E-01  9.550000E+00  7.663729E+04  4.378870E-01    1 
 5.000000E-01  5.000000E-01  9.650000E+00  7.573012E+04  4.275223E-01    1 
 5.000000E-01  5.000000E-01  9.750000E+00  7.484136E+04  4.179233E-01    1 
 5.000000E-01  5.000000E-01  9.850000E+00  7.397461E+04  4.090533E-01    1 
 5.000000E-01  5.000000E-01  9.950000E+00  7.313350E+04  4.008771E-01    1 
