TITLE = "  1.00000E+01 [y]"
VARIABLES="X [m]","Y [m]","Z [m]","Liquid Pressure [Pa]","Liquid Saturation","Material ID"
ZONE T="1.00000E+01", STRANDID=1, SOLUTIONTIME=1.00000E+01, I=1, J=1, K=100, DATAPACKING=POINT
 5.000000E-01  5.000000E-01  5.000000E-02  1.692899E+05  1.000000E+00    1 
 5.000000E-01  5.000000E-01  1.500000E-01  1.683123E+05  1.000000E+00    1 
 5.000000E-01  5.000000E-01  2.500000E-01  1.673346E+05  1.000000E+00    1 
 5.000000E-01  5.000000E-01  3.500000E-01  1.663570E+05  1.000000E+00    1 
 5.000000E-01  5.000000E-01  4.500000E-01  1.653793E+05  1.000000E+00    1 
 5.000000E-01  5.000000E-01  5.500000E-01  1.644017E+05  1.000000E+00    1 
 5.000000E-01  5.000000E-01  6.500000E-01  1.634241E+05  1.000000E+00    1 
 5.000000E-01  5.000000E-01  7.500000E-01  1.624464E+05  1.000000E+00    1 
 5.000000E-01  5.000000E-01  8.500000E-01  1.614688E+05  1.000000E+00    1 
 5.000000E-01  5.000000E-01  9.500000E-01  1.604911E+05  1.000000E+00    1 
 5.000000E-01  5.000000E-01  1.050000E+00  1.595135E+05  1.000000E+00    1 
 5.000000E-01  5.000000E-01  1.150000E+00  1.585359E+05  1.000000E+00    1 
 5.000000E-01  5.000000E-01  1.250000E+00  1.575582E+05  1.000000E+00    1 
 5.000000E-01  5.000000E-01  1.350000E+00  1.565806E+05  1.000000E+00    1 
 5.000000E-01  5.000000E-01  1.450000E+00  1.556029E+05  1.000000E+00    1 
 5.000000E-01  5.000000E-01  1.550000E+00  1.546253E+05  1.000000E+00    1 
 5.000000E-01  5.000000E-01  1.650000E+00  1.536477E+05  1.000000E+00    1 
 5.000000E-01  5.000000E-01  1.750000E+00  1.526700E+05  1.000000E+00    1 
 5.000000E-01  5.000000E-01  1.850000E+00  1.516924E+05  1.000000E+00    1 
 5.000000E-01  5.000000E-01  1.950000E+00  1.507148E+05  1.000000E+00    1 
 5.000000E-01  5.000000E-01  2.050000E+00  1.497371E+05  1.000000E+00    1 
 5.000000E-01  5.000000E-01  2.150000E+00  1.487595E+05  1.000000E+00    1 
 5.000000E-01  5.000000E-01  2.250000E+00  1.477819E+05  1.000000E+00    1 
 5.000000E-01  5.000000E-01  2.350000E+00  1.468042E+05  1.000000E+00    1 
 5.000000E-01  5.000000E-01  2.450000E+00  1.458266E+05  1.000000E+00    1 
 5.000000E-01  5.000000E-01  2.550000E+00  1.448490E+05  1.000000E+00    1 
 5.000000E-01  5.000000E-01  2.650000E+00  1.438713E+05  1.000000E+00    1 
 5.000000E-01  5.000000E-01  2.750000E+00  1.428937E+05  1.000000E+00    1 
 5.000000E-01  5.000000E-01  2.850000E+00  1.419161E+05  1.000000E+00    1 
 5.000000E-01  5.000000E-01  2.950000E+00  1.409384E+05  1.000000E+00    1 
 5.000000E-01  5.000000E-01  3.050000E+00  1.399608E+05  1.000000E+00    1 
 5.000000E-01  5.000000E-01  3.150000E+00  1.389832E+05  1.000000E+00    1 
 5.000000E-01  5.000000E-01  3.250000E+00  1.380056E+05  1.000000E+00    1 
 5.000000E-01  5.000000E-01  3.350000E+00  1.370279E+05  1.000000E+00    1 
 5.000000E-01  5.000000E-01  3.450000E+00  1.360503E+05  1.000000E+00    1 
 5.000000E-01  5.000000E-01  3.550000E+00  1.350727E+05  1.000000E+00    1 
 5.000000E-01  5.000000E-01  3.650000E+00  1.340950E+05  1.000000E+00    1 
 5.000000E-01  5.000000E-01  3.750000E+00  1.331174E+05  1.000000E+00    1 
 5.000000E-01  5.000000E-01  3.850000E+00  1.321398E+05  1.000000E+00    1 
 5.000000E-01  5.000000E-01  3.950000E+00  1.311622E+05  1.000000E+00    1 
 5.000000E-01  5.000000E-01  4.050000E+00  1.301845E+05  1.000000E+00    1 
 5.000000E-01  5.000000E-01  4.150000E+00  1.292069E+05  1.000000E+00    1 
 5.000000E-01  5.000000E-01  4.250000E+00  1.282293E+05  1.000000E+00    1 
 5.000000E-01  5.000000E-01  4.350000E+00  1.272517E+05  1.000000E+00    1 
 5.000000E-01  5.000000E-01  4.450000E+00  1.262740E+05  1.000000E+00    1 
 5.000000E-01  5.000000E-01  4.550000E+00  1.252964E+05  1.000000E+00    1 
 5.000000E-01  5.000000E-01  4.650000E+00  1.243188E+05  1.000000E+00    1 
 5.000000E-01  5.000000E-01  4.750000E+00  1.233412E+05  1.000000E+00    1 
 5.000000E-01  5.000000E-01  4.850000E+00  1.223635E+05  1.000000E+00    1 
 5.000000E-01  5.000000E-01  4.950000E+00  1.213859E+05  1.000000E+00    1 
 5.000000E-01  5.000000E-01  5.050000E+00  1.204083E+05  1.000000E+00    1 
 5.000000E-01  5.000000E-01  5.150000E+00  1.194307E+05  1.000000E+00    1 
 5.000000E-01  5.000000E-01  5.250000E+00  1.184531E+05  1.000000E+00    1 
 5.000000E-01  5.000000E-01  5.350000E+00  1.174754E+05  1.000000E+00    1 
 5.000000E-01  5.000000E-01  5.450000E+00  1.164978E+05  1.000000E+00    1 
 5.000000E-01  5.000000E-01  5.550000E+00  1.155202E+05  1.000000E+00    1 
 5.000000E-01  5.000000E-01  5.650000E+00  1.145426E+05  1.000000E+00    1 
 5.000000E-01  5.000000E-01  5.750000E+00  1.135650E+05  1.000000E+00    1 
 5.000000E-01  5.000000E-01  5.850000E+00  1.125873E+05  1.000000E+00    1 
 5.000000E-01  5.000000E-01  5.950000E+00  1.116097E+05  1.000000E+00    1 
 5.000000E-01  5.000000E-01  6.050000E+00  1.106321E+05  1.000000E+00    1 
 5.000000E-01  5.000000E-01  6.150000E+00  1.096545E+05  1.000000E+00    1 
 5.000000E-01  5.000000E-01  6.250000E+00  1.086769E+05  1.000000E+00    1 
 5.000000E-01  5.000000E-01  6.350000E+00  1.076993E+05  1.000000E+00    1 
 5.000000E-01  5.000000E-01  6.450000E+00  1.067216E+05  1.000000E+00    1 
 5.000000E-01  5.000000E-01  6.550000E+00  1.057440E+05  1.000000E+00    1 
 5.000000E-01  5.000000E-01  6.650000E+00  1.047664E+05  1.000000E+00    1 
 5.000000E-01  5.000000E-01  6.750000E+00  1.037888E+05  1.000000E+00    1 
 5.000000E-01  5.000000E-01  6.850000E+00  1.028112E+05  1.000000E+00    1 
 5.000000E-01  5.000000E-01  6.950000E+00  1.018336E+05  1.000000E+00    1 
 5.000000E-01  5.000000E-01  7.050000E+00  1.008560E+05  9.990117E-01    1 
 5.000000E-01  5.000000E-01  7.150000E+00  9.987848E+04  9.907293E-01    1 
 5.000000E-01  5.000000E-01  7.250000E+00  9.890107E+04  9.746714E-01    1 
 5.000000E-01  5.000000E-01  7.350000E+00  9.792381E+04  9.520645E-01    1 
 5.000000E-01  5.000000E-01  7.450000E+00  9.694674E+04  9.244427E-01    1 
 5.000000E-01  5.000000E-01  7.550000E+00  9.596992E+04  8.934001E-01    1 
 5.000000E-01  5.000000E-01  7.650000E+00  9.499344E+04  8.603983E-01    1 
 5.000000E-01  5.000000E-01  7.750000E+00  9.401742E+04  8.266558E-01    1 
 5.000000E-01  5.000000E-01  7.850000E+00  9.304198E+04  7.931110E-01    1 
 5.000000E-01  5.000000E-01  7.950000E+00  9.206729E+04  7.604355E-01    1 
 5.000000E-01  5.000000E-01  8.050000E+00  9.109355E+04  7.290746E-01    1 
 5.000000E-01  5.000000E-01  8.150000E+00  9.012102E+04  6.992958E-01    1 
 5.000000E-01  5.000000E-01  8.250000E+00  8.914999E+04  6.712348E-01    1 
 5.000000E-01  5.000000E-01  8.350000E+00  8.818080E+04  6.449345E-01    1 
 5.000000E-01  5.000000E-01  8.450000E+00  8.721387E+04  6.203754E-01    1 
 5.000000E-01  5.000000E-01  8.550000E+00  8.624964E+04  5.974985E-01    1 
 5.000000E-01  5.000000E-01  8.650000E+00  8.528867E+04  5.762211E-01    1 
 5.000000E-01  5.000000E-01  8.750000E+00  8.433154E+04  5.564486E-01    1 
 5.000000E-01  5.000000E-01  8.850000E+00  8.337895E+04  5.380817E-01    1 
 5.000000E-01  5.000000E-01  8.950000E+00  8.243165E+04  5.210213E-01    1 
 5.000000E-01  5.000000E-01  9.050000E+00  8.149046E+04  5.051717E-01    1 
 5.000000E-01  5.000000E-01  9.150000E+00  8.055631E+04  4.904423E-01    1 
 5.000000E-01  5.000000E-01  9.250000E+00  7.963016E+04  4.767484E-01    1 
 5.000000E-01  5.000000E-01  9.350000E+00  7.871308E+04  4.640119E-01    1 
 5.000000E-01  5.000000E-01  9.450000E+00  7.780618E+04  4.521609E-01    1 
 5.000000E-01  5.000000E-01  9.550000E+00  7.691066E+04  4.411294E-01    1 
 5.000000E-01  5.000000E-01  9.650000E+00  7.602774E+04  4.308575E-01    1 
 5.000000E-01  5.000000E-01  9.750000E+00  7.515869E+04  4.212901E-01    1 
 5.000000E-01  5.000000E-01  9.850000E+00  7.430481E+04  4.123775E-01    1 
 5.000000E-01  5.000000E-01  9.950000E+00  7.346739E+04  4.040738E-01    1 
