TITLE = "  0.00000E+00 [y]"
VARIABLES="X [m]","Y [m]","Z [m]","Liquid Pressure [Pa]","Liquid Saturation","Material ID"
ZONE T="0.00000E+00", STRANDID=1, SOLUTIONTIME=0.00000E+00, I=1, J=1, K=100, DATAPACKING=POINT
 5.000000E-01  5.000000E-01  5.000000E-02  1.692898E+05  1.000000E+00    1 
 5.000000E-01  5.000000E-01  1.500000E-01  1.683118E+05  1.000000E+00    1 
 5.000000E-01  5.000000E-01  2.500000E-01  1.673339E+05  1.000000E+00    1 
 5.000000E-01  5.000000E-01  3.500000E-01  1.663560E+05  1.000000E+00    1 
 5.000000E-01  5.000000E-01  4.500000E-01  1.653781E+05  1.000000E+00    1 
 5.000000E-01  5.000000E-01  5.500000E-01  1.644001E+05  1.000000E+00    1 
 5.000000E-01  5.000000E-01  6.500000E-01  1.634222E+05  1.000000E+00    1 
 5.000000E-01  5.000000E-01  7.500000E-01  1.624443E+05  1.000000E+00    1 
 5.000000E-01  5.000000E-01  8.500000E-01  1.614664E+05  1.000000E+00    1 
 5.000000E-01  5.000000E-01  9.500000E-01  1.604885E+05  1.000000E+00    1 
 5.000000E-01  5.000000E-01  1.050000E+00  1.595105E+05  1.000000E+00    1 
 5.000000E-01  5.000000E-01  1.150000E+00  1.585326E+05  1.000000E+00    1 
 5.000000E-01  5.000000E-01  1.250000E+00  1.575547E+05  1.000000E+00    1 
 5.000000E-01  5.000000E-01  1.350000E+00  1.565768E+05  1.000000E+00    1 
 5.000000E-01  5.000000E-01  1.450000E+00  1.555989E+05  1.000000E+00    1 
 5.000000E-01  5.000000E-01  1.550000E+00  1.546209E+05  1.000000E+00    1 
 5.000000E-01  5.000000E-01  1.650000E+00  1.536430E+05  1.000000E+00    1 
 5.000000E-01  5.000000E-01  1.750000E+00  1.526651E+05  1.000000E+00    1 
 5.000000E-01  5.000000E-01  1.850000E+00  1.516872E+05  1.000000E+00    1 
 5.000000E-01  5.000000E-01  1.950000E+00  1.507093E+05  1.000000E+00    1 
 5.000000E-01  5.000000E-01  2.050000E+00  1.497313E+05  1.000000E+00    1 
 5.000000E-01  5.000000E-01  2.150000E+00  1.487534E+05  1.000000E+00    1 
 5.000000E-01  5.000000E-01  2.250000E+00  1.477755E+05  1.000000E+00    1 
 5.000000E-01  5.000000E-01  2.350000E+00  1.467976E+05  1.000000E+00    1 
 5.000000E-01  5.000000E-01  2.450000E+00  1.458197E+05  1.000000E+00    1 
 5.000000E-01  5.000000E-01  2.550000E+00  1.448418E+05  1.000000E+00    1 
 5.000000E-01  5.000000E-01  2.650000E+00  1.438639E+05  1.000000E+00    1 
 5.000000E-01  5.000000E-01  2.750000E+00  1.428859E+05  1.000000E+00    1 
 5.000000E-01  5.000000E-01  2.850000E+00  1.419080E+05  1.000000E+00    1 
 5.000000E-01  5.000000E-01  2.950000E+00  1.409301E+05  1.000000E+00    1 
 5.000000E-01  5.000000E-01  3.050000E+00  1.399522E+05  1.000000E+00    1 
 5.000000E-01  5.000000E-01  3.150000E+00  1.389743E+05  1.000000E+00    1 
 5.000000E-01  5.000000E-01  3.250000E+00  1.379964E+05  1.000000E+00    1 
 5.000000E-01  5.000000E-01  3.350000E+00  1.370185E+05  1.000000E+00    1 
 5.000000E-01  5.000000E-01  3.450000E+00  1.360406E+05  1.000000E+00    1 
 5.000000E-01  5.000000E-01  3.550000E+00  1.350626E+05  1.000000E+00    1 
 5.000000E-01  5.000000E-01  3.650000E+00  1.340847E+05  1.000000E+00    1 
 5.000000E-01  5.000000E-01  3.750000E+00  1.331068E+05  1.000000E+00    1 
 5.000000E-01  5.000000E-01  3.850000E+00  1.321289E+05  1.000000E+00    1 
 5.000000E-01  5.000000E-01  3.950000E+00  1.311510E+05  1.000000E+00    1 
 5.000000E-01  5.000000E-01  4.050000E+00  1.301731E+05  1.000000E+00    1 
 5.000000E-01  5.000000E-01  4.150000E+00  1.291952E+05  1.000000E+00    1 
 5.000000E-01  5.000000E-01  4.250000E+00  1.282173E+05  1.000000E+00    1 
 5.000000E-01  5.000000E-01  4.350000E+00  1.272394E+05  1.000000E+00    1 
 5.000000E-01  5.000000E-01  4.450000E+00  1.262615E+05  1.000000E+00    1 
 5.000000E-01  5.000000E-01  4.550000E+00  1.252836E+05  1.000000E+00    1 
 5.000000E-01  5.000000E-01  4.650000E+00  1.243057E+05  1.000000E+00    1 
 5.000000E-01  5.000000E-01  4.750000E+00  1.233278E+05  1.000000E+00    1 
 5.000000E-01  5.000000E-01  4.850000E+00  1.223498E+05  1.000000E+00    1 
 5.000000E-01  5.000000E-01  4.950000E+00  1.213719E+05  1.000000E+00    1 
 5.000000E-01  5.000000E-01  5.050000E+00  1.203940E+05  1.000000E+00    1 
 5.000000E-01  5.000000E-01  5.150000E+00  1.194161E+05  1.000000E+00    1 
 5.000000E-01  5.000000E-01  5.250000E+00  1.184382E+05  1.000000E+00    1 
 5.000000E-01  5.000000E-01  5.350000E+00  1.174603E+05  1.000000E+00    1 
 5.000000E-01  5.000000E-01  5.450000E+00  1.164824E+05  1.000000E+00    1 
 5.000000E-01  5.000000E-01  5.550000E+00  1.155045E+05  1.000000E+00    1 
 5.000000E-01  5.000000E-01  5.650000E+00  1.145266E+05  1.000000E+00    1 
 5.000000E-01  5.000000E-01  5.750000E+00  1.135487E+05  1.000000E+00    1 
 5.000000E-01  5.000000E-01  5.850000E+00  1.125708E+05  1.000000E+00    1 
 5.000000E-01  5.000000E-01  5.950000E+00  1.115929E+05  1.000000E+00    1 
 5.000000E-01  5.000000E-01  6.050000E+00  1.106150E+05  1.000000E+00    1 
 5.000000E-01  5.000000E-01  6.150000E+00  1.096371E+05  1.000000E+00    1 
 5.000000E-01  5.000000E-01  6.250000E+00  1.086592E+05  1.000000E+00    1 
 5.000000E-01  5.000000E-01  6.350000E+00  1.076813E+05  1.000000E+00    1 
 5.000000E-01  5.000000E-01  6.450000E+00  1.067034E+05  1.000000E+00    1 
 5.000000E-01  5.000000E-01  6.550000E+00  1.057255E+05  1.000000E+00    1 
 5.000000E-01  5.000000E-01  6.650000E+00  1.047476E+05  1.000000E+00    1 
 5.000000E-01  5.000000E-01  6.750000E+00  1.037697E+05  1.000000E+00    1 
 5.000000E-01  5.000000E-01  6.850000E+00  1.027918E+05  1.000000E+00    1 
 5.000000E-01  5.000000E-01  6.950000E+00  1.018139E+05  1.000000E+00    1 
 5.000000E-01  5.000000E-01  7.050000E+00  1.008361E+05  9.989261E-01    1 
 5.000000E-01  5.000000E-01  7.150000E+00  9.985816E+04  9.904712E-01    1 
 5.000000E-01  5.000000E-01  7.250000E+00  9.888026E+04  9.742532E-01    1 
 5.000000E-01  5.000000E-01  7.350000E+00  9.790237E+04  9.515064E-01    1 
 5.000000E-01  5.000000E-01  7.450000E+00  9.692448E+04  9.237676E-01    1 
 5.000000E-01  5.000000E-01  7.550000E+00  9.594658E+04  8.926290E-01    1 
 5.000000E-01  5.000000E-01  7.650000E+00  9.496869E+04  8.595473E-01    1 
 5.000000E-01  5.000000E-01  7.750000E+00  9.399080E+04  8.257344E-01    1 
 5.000000E-01  5.000000E-01  7.850000E+00  9.301291E+04  7.921216E-01    1 
 5.000000E-01  5.000000E-01  7.950000E+00  9.203501E+04  7.593737E-01    1 
 5.000000E-01  5.000000E-01  8.050000E+00  9.105712E+04  7.279301E-01    1 
 5.000000E-01  5.000000E-01  8.150000E+00  9.007923E+04  6.980531E-01    1 
 5.000000E-01  5.000000E-01  8.250000E+00  8.910134E+04  6.698739E-01    1 
 5.000000E-01  5.000000E-01  8.350000E+00  8.812345E+04  6.434315E-01    1 
 5.000000E-01  5.000000E-01  8.450000E+00  8.714556E+04  6.187028E-01    1 
 5.000000E-01  5.000000E-01  8.550000E+00  8.616768E+04  5.956256E-01    1 
 5.000000E-01  5.000000E-01  8.650000E+00  8.518979E+04  5.741145E-01    1 
 5.000000E-01  5.000000E-01  8.750000E+00  8.421190E+04  5.540719E-01    1 
 5.000000E-01  5.000000E-01  8.850000E+00  8.323401E+04  5.353958E-01    1 
 5.000000E-01  5.000000E-01  8.950000E+00  8.225612E+04  5.179848E-01    1 
 5.000000E-01  5.000000E-01  9.050000E+00  8.127824E+04  5.017406E-01    1 
 5.000000E-01  5.000000E-01  9.150000E+00  8.030035E+04  4.865703E-01    1 
 5.000000E-01  5.000000E-01  9.250000E+00  7.932247E+04  4.723871E-01    1 
 5.000000E-01  5.000000E-01  9.350000E+00  7.834458E+04  4.591106E-01    1 
 5.000000E-01  5.000000E-01  9.450000E+00  7.736670E+04  4.466670E-01    1 
 5.000000E-01  5.000000E-01  9.550000E+00  7.638881E+04  4.349886E-01    1 
 5.000000E-01  5.000000E-01  9.650000E+00  7.541093E+04  4.240138E-01    1 
 5.000000E-01  5.000000E-01  9.750000E+00  7.443304E+04  4.136865E-01    1 
 5.000000E-01  5.000000E-01  9.850000E+00  7.345516E+04  4.039555E-01    1 
 5.000000E-01  5.000000E-01  9.950000E+00  7.247728E+04  3.947746E-01    1 
