TITLE = "  1.00000E-02 [y]"
VARIABLES="X [m]","Y [m]","Z [m]","Liquid Pressure [Pa]","Liquid Saturation","Material ID"
ZONE T="1.00000E-02", STRANDID=1, SOLUTIONTIME=1.00000E-02, I=1, J=1, K=100, DATAPACKING=POINT
 5.000000E-01  5.000000E-01  5.000000E-02  1.692898E+05  1.000000E+00    1 
 5.000000E-01  5.000000E-01  1.500000E-01  1.683118E+05  1.000000E+00    1 
 5.000000E-01  5.000000E-01  2.500000E-01  1.673339E+05  1.000000E+00    1 
 5.000000E-01  5.000000E-01  3.500000E-01  1.663560E+05  1.000000E+00    1 
 5.000000E-01  5.000000E-01  4.500000E-01  1.653781E+05  1.000000E+00    1 
 5.000000E-01  5.000000E-01  5.500000E-01  1.644001E+05  1.000000E+00    1 
 5.000000E-01  5.000000E-01  6.500000E-01  1.634222E+05  1.000000E+00    1 
 5.000000E-01  5.000000E-01  7.500000E-01  1.624443E+05  1.000000E+00    1 
 5.000000E-01  5.000000E-01  8.500000E-01  1.614664E+05  1.000000E+00    1 
 5.000000E-01  5.000000E-01  9.500000E-01  1.604884E+05  1.000000E+00    1 
 5.000000E-01  5.000000E-01  1.050000E+00  1.595105E+05  1.000000E+00    1 
 5.000000E-01  5.000000E-01  1.150000E+00  1.585326E+05  1.000000E+00    1 
 5.000000E-01  5.000000E-01  1.250000E+00  1.575547E+05  1.000000E+00    1 
 5.000000E-01  5.000000E-01  1.350000E+00  1.565767E+05  1.000000E+00    1 
 5.000000E-01  5.000000E-01  1.450000E+00  1.555988E+05  1.000000E+00    1 
 5.000000E-01  5.000000E-01  1.550000E+00  1.546209E+05  1.000000E+00    1 
 5.000000E-01  5.000000E-01  1.650000E+00  1.536430E+05  1.000000E+00    1 
 5.000000E-01  5.000000E-01  1.750000E+00  1.526650E+05  1.000000E+00    1 
 5.000000E-01  5.000000E-01  1.850000E+00  1.516871E+05  1.000000E+00    1 
 5.000000E-01  5.000000E-01  1.950000E+00  1.507092E+05  1.000000E+00    1 
 5.000000E-01  5.000000E-01  2.050000E+00  1.497313E+05  1.000000E+00    1 
 5.000000E-01  5.000000E-01  2.150000E+00  1.487534E+05  1.000000E+00    1 
 5.000000E-01  5.000000E-01  2.250000E+00  1.477754E+05  1.000000E+00    1 
 5.000000E-01  5.000000E-01  2.350000E+00  1.467975E+05  1.000000E+00    1 
 5.000000E-01  5.000000E-01  2.450000E+00  1.458196E+05  1.000000E+00    1 
 5.000000E-01  5.000000E-01  2.550000E+00  1.448417E+05  1.000000E+00    1 
 5.000000E-01  5.000000E-01  2.650000E+00  1.438638E+05  1.000000E+00    1 
 5.000000E-01  5.000000E-01  2.750000E+00  1.428859E+05  1.000000E+00    1 
 5.000000E-01  5.000000E-01  2.850000E+00  1.419079E+05  1.000000E+00    1 
 5.000000E-01  5.000000E-01  2.950000E+00  1.409300E+05  1.000000E+00    1 
 5.000000E-01  5.000000E-01  3.050000E+00  1.399521E+05  1.000000E+00    1 
 5.000000E-01  5.000000E-01  3.150000E+00  1.389742E+05  1.000000E+00    1 
 5.000000E-01  5.000000E-01  3.250000E+00  1.379963E+05  1.000000E+00    1 
 5.000000E-01  5.000000E-01  3.350000E+00  1.370184E+05  1.000000E+00    1 
 5.000000E-01  5.000000E-01  3.450000E+00  1.360405E+05  1.000000E+00    1 
 5.000000E-01  5.000000E-01  3.550000E+00  1.350625E+05  1.000000E+00    1 
 5.000000E-01  5.000000E-01  3.650000E+00  1.340846E+05  1.000000E+00    1 
 5.000000E-01  5.000000E-01  3.750000E+00  1.331067E+05  1.000000E+00    1 
 5.000000E-01  5.000000E-01  3.850000E+00  1.321288E+05  1.000000E+00    1 
 5.000000E-01  5.000000E-01  3.950000E+00  1.311509E+05  1.000000E+00    1 
 5.000000E-01  5.000000E-01  4.050000E+00  1.301730E+05  1.000000E+00    1 
 5.000000E-01  5.000000E-01  4.150000E+00  1.291951E+05  1.000000E+00    1 
 5.000000E-01  5.000000E-01  4.250000E+00  1.282172E+05  1.000000E+00    1 
 5.000000E-01  5.000000E-01  4.350000E+00  1.272393E+05  1.000000E+00    1 
 5.000000E-01  5.000000E-01  4.450000E+00  1.262613E+05  1.000000E+00    1 
 5.000000E-01  5.000000E-01  4.550000E+00  1.252834E+05  1.000000E+00    1 
 5.000000E-01  5.000000E-01  4.650000E+00  1.243055E+05  1.000000E+00    1 
 5.000000E-01  5.000000E-01  4.750000E+00  1.233276E+05  1.000000E+00    1 
 5.000000E-01  5.000000E-01  4.850000E+00  1.223497E+05  1.000000E+00    1 
 5.000000E-01  5.000000E-01  4.950000E+00  1.213718E+05  1.000000E+00    1 
 5.000000E-01  5.000000E-01  5.050000E+00  1.203939E+05  1.000000E+00    1 
 5.000000E-01  5.000000E-01  5.150000E+00  1.194160E+05  1.000000E+00    1 
 5.000000E-01  5.000000E-01  5.250000E+00  1.184381E+05  1.000000E+00    1 
 5.000000E-01  5.000000E-01  5.350000E+00  1.174602E+05  1.000000E+00    1 
 5.000000E-01  5.000000E-01  5.450000E+00  1.164823E+05  1.000000E+00    1 
 5.000000E-01  5.000000E-01  5.550000E+00  1.155044E+05  1.000000E+00    1 
 5.000000E-01  5.000000E-01  5.650000E+00  1.145265E+05  1.000000E+00    1 
 5.000000E-01  5.000000E-01  5.750000E+00  1.135486E+05  1.000000E+00    1 
 5.000000E-01  5.000000E-01  5.850000E+00  1.125707E+05  1.000000E+00    1 
 5.000000E-01  5.000000E-01  5.950000E+00  1.115928E+05  1.000000E+00    1 
 5.000000E-01  5.000000E-01  6.050000E+00  1.106149E+05  1.000000E+00    1 
 5.000000E-01  5.000000E-01  6.150000E+00  1.096370E+05  1.000000E+00    1 
 5.000000E-01  5.000000E-01  6.250000E+00  1.086591E+05  1.000000E+00    1 
 5.000000E-01  5.000000E-01  6.350000E+00  1.076811E+05  1.000000E+00    1 
 5.000000E-01  5.000000E-01  6.450000E+00  1.067032E+05  1.000000E+00    1 
 5.000000E-01  5.000000E-01  6.550000E+00  1.057253E+05  1.000000E+00    1 
 5.000000E-01  5.000000E-01  6.650000E+00  1.047474E+05  1.000000E+00    1 
 5.000000E-01  5.000000E-01  6.750000E+00  1.037695E+05  1.000000E+00    1 
 5.000000E-01  5.000000E-01  6.850000E+00  1.027916E+05  1.000000E+00    1 
 5.000000E-01  5.000000E-01  6.950000E+00  1.018138E+05  1.000000E+00    1 
 5.000000E-01  5.000000E-01  7.050000E+00  1.008359E+05  9.989252E-01    1 
 5.000000E-01  5.000000E-01  7.150000E+00  9.985795E+04  9.904686E-01    1 
 5.000000E-01  5.000000E-01  7.250000E+00  9.888006E+04  9.742490E-01    1 
 5.000000E-01  5.000000E-01  7.350000E+00  9.790216E+04  9.515008E-01    1 
 5.000000E-01  5.000000E-01  7.450000E+00  9.692425E+04  9.237609E-01    1 
 5.000000E-01  5.000000E-01  7.550000E+00  9.594635E+04  8.926213E-01    1 
 5.000000E-01  5.000000E-01  7.650000E+00  9.496844E+04  8.595388E-01    1 
 5.000000E-01  5.000000E-01  7.750000E+00  9.399053E+04  8.257253E-01    1 
 5.000000E-01  5.000000E-01  7.850000E+00  9.301262E+04  7.921119E-01    1 
 5.000000E-01  5.000000E-01  7.950000E+00  9.203470E+04  7.593634E-01    1 
 5.000000E-01  5.000000E-01  8.050000E+00  9.105677E+04  7.279191E-01    1 
 5.000000E-01  5.000000E-01  8.150000E+00  9.007884E+04  6.980413E-01    1 
 5.000000E-01  5.000000E-01  8.250000E+00  8.910089E+04  6.698612E-01    1 
 5.000000E-01  5.000000E-01  8.350000E+00  8.812292E+04  6.434175E-01    1 
 5.000000E-01  5.000000E-01  8.450000E+00  8.714494E+04  6.186875E-01    1 
 5.000000E-01  5.000000E-01  8.550000E+00  8.616693E+04  5.956087E-01    1 
 5.000000E-01  5.000000E-01  8.650000E+00  8.518890E+04  5.740956E-01    1 
 5.000000E-01  5.000000E-01  8.750000E+00  8.421083E+04  5.540507E-01    1 
 5.000000E-01  5.000000E-01  8.850000E+00  8.323272E+04  5.353720E-01    1 
 5.000000E-01  5.000000E-01  8.950000E+00  8.225456E+04  5.179580E-01    1 
 5.000000E-01  5.000000E-01  9.050000E+00  8.127635E+04  5.017104E-01    1 
 5.000000E-01  5.000000E-01  9.150000E+00  8.029807E+04  4.865362E-01    1 
 5.000000E-01  5.000000E-01  9.250000E+00  7.931972E+04  4.723486E-01    1 
 5.000000E-01  5.000000E-01  9.350000E+00  7.834128E+04  4.590672E-01    1 
 5.000000E-01  5.000000E-01  9.450000E+00  7.736273E+04  4.466182E-01    1 
 5.000000E-01  5.000000E-01  9.550000E+00  7.638408E+04  4.349338E-01    1 
 5.000000E-01  5.000000E-01  9.650000E+00  7.540528E+04  4.239524E-01    1 
 5.000000E-01  5.000000E-01  9.750000E+00  7.442634E+04  4.136178E-01    1 
 5.000000E-01  5.000000E-01  9.850000E+00  7.344723E+04  4.038789E-01    1 
 5.000000E-01  5.000000E-01  9.950000E+00  7.246792E+04  3.946893E-01    1 
