TITLE = "  1.00000E-01 [y]"
VARIABLES="X [m]","Y [m]","Z [m]","Liquid Pressure [Pa]","Liquid Saturation","Material ID"
ZONE T="1.00000E-01", STRANDID=1, SOLUTIONTIME=1.00000E-01, I=1, J=1, K=100, DATAPACKING=POINT
 5.000000E-01  5.000000E-01  5.000000E-02  1.692896E+05  1.000000E+00    1 
 5.000000E-01  5.000000E-01  1.500000E-01  1.683114E+05  1.000000E+00    1 
 5.000000E-01  5.000000E-01  2.500000E-01  1.673332E+05  1.000000E+00    1 
 5.000000E-01  5.000000E-01  3.500000E-01  1.663550E+05  1.000000E+00    1 
 5.000000E-01  5.000000E-01  4.500000E-01  1.653768E+05  1.000000E+00    1 
 5.000000E-01  5.000000E-01  5.500000E-01  1.643986E+05  1.000000E+00    1 
 5.000000E-01  5.000000E-01  6.500000E-01  1.634204E+05  1.000000E+00    1 
 5.000000E-01  5.000000E-01  7.500000E-01  1.624422E+05  1.000000E+00    1 
 5.000000E-01  5.000000E-01  8.500000E-01  1.614640E+05  1.000000E+00    1 
 5.000000E-01  5.000000E-01  9.500000E-01  1.604858E+05  1.000000E+00    1 
 5.000000E-01  5.000000E-01  1.050000E+00  1.595076E+05  1.000000E+00    1 
 5.000000E-01  5.000000E-01  1.150000E+00  1.585294E+05  1.000000E+00    1 
 5.000000E-01  5.000000E-01  1.250000E+00  1.575512E+05  1.000000E+00    1 
 5.000000E-01  5.000000E-01  1.350000E+00  1.565730E+05  1.000000E+00    1 
 5.000000E-01  5.000000E-01  1.450000E+00  1.555948E+05  1.000000E+00    1 
 5.000000E-01  5.000000E-01  1.550000E+00  1.546166E+05  1.000000E+00    1 
 5.000000E-01  5.000000E-01  1.650000E+00  1.536384E+05  1.000000E+00    1 
 5.000000E-01  5.000000E-01  1.750000E+00  1.526602E+05  1.000000E+00    1 
 5.000000E-01  5.000000E-01  1.850000E+00  1.516820E+05  1.000000E+00    1 
 5.000000E-01  5.000000E-01  1.950000E+00  1.507039E+05  1.000000E+00    1 
 5.000000E-01  5.000000E-01  2.050000E+00  1.497257E+05  1.000000E+00    1 
 5.000000E-01  5.000000E-01  2.150000E+00  1.487475E+05  1.000000E+00    1 
 5.000000E-01  5.000000E-01  2.250000E+00  1.477693E+05  1.000000E+00    1 
 5.000000E-01  5.000000E-01  2.350000E+00  1.467911E+05  1.000000E+00    1 
 5.000000E-01  5.000000E-01  2.450000E+00  1.458129E+05  1.000000E+00    1 
 5.000000E-01  5.000000E-01  2.550000E+00  1.448347E+05  1.000000E+00    1 
 5.000000E-01  5.000000E-01  2.650000E+00  1.438565E+05  1.000000E+00    1 
 5.000000E-01  5.000000E-01  2.750000E+00  1.428783E+05  1.000000E+00    1 
 5.000000E-01  5.000000E-01  2.850000E+00  1.419001E+05  1.000000E+00    1 
 5.000000E-01  5.000000E-01  2.950000E+00  1.409219E+05  1.000000E+00    1 
 5.000000E-01  5.000000E-01  3.050000E+00  1.399437E+05  1.000000E+00    1 
 5.000000E-01  5.000000E-01  3.150000E+00  1.389655E+05  1.000000E+00    1 
 5.000000E-01  5.000000E-01  3.250000E+00  1.379874E+05  1.000000E+00    1 
 5.000000E-01  5.000000E-01  3.350000E+00  1.370092E+05  1.000000E+00    1 
 5.000000E-01  5.000000E-01  3.450000E+00  1.360310E+05  1.000000E+00    1 
 5.000000E-01  5.000000E-01  3.550000E+00  1.350528E+05  1.000000E+00    1 
 5.000000E-01  5.000000E-01  3.650000E+00  1.340746E+05  1.000000E+00    1 
 5.000000E-01  5.000000E-01  3.750000E+00  1.330964E+05  1.000000E+00    1 
 5.000000E-01  5.000000E-01  3.850000E+00  1.321182E+05  1.000000E+00    1 
 5.000000E-01  5.000000E-01  3.950000E+00  1.311400E+05  1.000000E+00    1 
 5.000000E-01  5.000000E-01  4.050000E+00  1.301619E+05  1.000000E+00    1 
 5.000000E-01  5.000000E-01  4.150000E+00  1.291837E+05  1.000000E+00    1 
 5.000000E-01  5.000000E-01  4.250000E+00  1.282055E+05  1.000000E+00    1 
 5.000000E-01  5.000000E-01  4.350000E+00  1.272273E+05  1.000000E+00    1 
 5.000000E-01  5.000000E-01  4.450000E+00  1.262491E+05  1.000000E+00    1 
 5.000000E-01  5.000000E-01  4.550000E+00  1.252709E+05  1.000000E+00    1 
 5.000000E-01  5.000000E-01  4.650000E+00  1.242928E+05  1.000000E+00    1 
 5.000000E-01  5.000000E-01  4.750000E+00  1.233146E+05  1.000000E+00    1 
 5.000000E-01  5.000000E-01  4.850000E+00  1.223364E+05  1.000000E+00    1 
 5.000000E-01  5.000000E-01  4.950000E+00  1.213582E+05  1.000000E+00    1 
 5.000000E-01  5.000000E-01  5.050000E+00  1.203800E+05  1.000000E+00    1 
 5.000000E-01  5.000000E-01  5.150000E+00  1.194018E+05  1.000000E+00    1 
 5.000000E-01  5.000000E-01  5.250000E+00  1.184237E+05  1.000000E+00    1 
 5.000000E-01  5.000000E-01  5.350000E+00  1.174455E+05  1.000000E+00    1 
 5.000000E-01  5.000000E-01  5.450000E+00  1.164673E+05  1.000000E+00    1 
 5.000000E-01  5.000000E-01  5.550000E+00  1.154891E+05  1.000000E+00    1 
 5.000000E-01  5.000000E-01  5.650000E+00  1.145110E+05  1.000000E+00    1 
 5.000000E-01  5.000000E-01  5.750000E+00  1.135328E+05  1.000000E+00    1 
 5.000000E-01  5.000000E-01  5.850000E+00  1.125546E+05  1.000000E+00    1 
 5.000000E-01  5.000000E-01  5.950000E+00  1.115764E+05  1.000000E+00    1 
 5.000000E-01  5.000000E-01  6.050000E+00  1.105982E+05  1.000000E+00    1 
 5.000000E-01  5.000000E-01  6.150000E+00  1.096201E+05  1.000000E+00    1 
 5.000000E-01  5.000000E-01  6.250000E+00  1.086419E+05  1.000000E+00    1 
 5.000000E-01  5.000000E-01  6.350000E+00  1.076637E+05  1.000000E+00    1 
 5.000000E-01  5.000000E-01  6.450000E+00  1.066855E+05  1.000000E+00    1 
 5.000000E-01  5.000000E-01  6.550000E+00  1.057074E+05  1.000000E+00    1 
 5.000000E-01  5.000000E-01  6.650000E+00  1.047292E+05  1.000000E+00    1 
 5.000000E-01  5.000000E-01  6.750000E+00  1.037510E+05  1.000000E+00    1 
 5.000000E-01  5.000000E-01  6.850000E+00  1.027728E+05  1.000000E+00    1 
 5.000000E-01  5.000000E-01  6.950000E+00  1.017947E+05  1.000000E+00    1 
 5.000000E-01  5.000000E-01  7.050000E+00  1.008165E+05  9.988386E-01    1 
 5.000000E-01  5.000000E-01  7.150000E+00  9.983829E+04  9.902155E-01    1 
 5.000000E-01  5.000000E-01  7.250000E+00  9.886001E+04  9.738434E-01    1 
 5.000000E-01  5.000000E-01  7.350000E+00  9.788163E+04  9.509642E-01    1 
 5.000000E-01  5.000000E-01  7.450000E+00  9.690311E+04  9.231178E-01    1 
 5.000000E-01  5.000000E-01  7.550000E+00  9.592439E+04  8.918947E-01    1 
 5.000000E-01  5.000000E-01  7.650000E+00  9.494542E+04  8.587470E-01    1 
 5.000000E-01  5.000000E-01  7.750000E+00  9.396611E+04  8.248801E-01    1 
 5.000000E-01  5.000000E-01  7.850000E+00  9.298635E+04  7.912183E-01    1 
 5.000000E-01  5.000000E-01  7.950000E+00  9.200600E+04  7.584203E-01    1 
 5.000000E-01  5.000000E-01  8.050000E+00  9.102489E+04  7.269195E-01    1 
 5.000000E-01  5.000000E-01  8.150000E+00  9.004282E+04  6.969731E-01    1 
 5.000000E-01  5.000000E-01  8.250000E+00  8.905953E+04  6.687078E-01    1 
 5.000000E-01  5.000000E-01  8.350000E+00  8.807472E+04  6.421588E-01    1 
 5.000000E-01  5.000000E-01  8.450000E+00  8.708801E+04  6.172996E-01    1 
 5.000000E-01  5.000000E-01  8.550000E+00  8.609898E+04  5.940645E-01    1 
 5.000000E-01  5.000000E-01  8.650000E+00  8.510712E+04  5.723648E-01    1 
 5.000000E-01  5.000000E-01  8.750000E+00  8.411184E+04  5.520999E-01    1 
 5.000000E-01  5.000000E-01  8.850000E+00  8.311244E+04  5.331645E-01    1 
 5.000000E-01  5.000000E-01  8.950000E+00  8.210813E+04  5.154538E-01    1 
 5.000000E-01  5.000000E-01  9.050000E+00  8.109797E+04  4.988660E-01    1 
 5.000000E-01  5.000000E-01  9.150000E+00  8.008091E+04  4.833046E-01    1 
 5.000000E-01  5.000000E-01  9.250000E+00  7.905571E+04  4.686787E-01    1 
 5.000000E-01  5.000000E-01  9.350000E+00  7.802097E+04  4.549038E-01    1 
 5.000000E-01  5.000000E-01  9.450000E+00  7.697506E+04  4.419015E-01    1 
 5.000000E-01  5.000000E-01  9.550000E+00  7.591611E+04  4.295992E-01    1 
 5.000000E-01  5.000000E-01  9.650000E+00  7.484199E+04  4.179299E-01    1 
 5.000000E-01  5.000000E-01  9.750000E+00  7.375020E+04  4.068315E-01    1 
 5.000000E-01  5.000000E-01  9.850000E+00  7.263788E+04  3.962465E-01    1 
 5.000000E-01  5.000000E-01  9.950000E+00  7.150169E+04  3.861212E-01    1 
