TITLE = "  1.00000E-02 [y]"
VARIABLES="X [m]","Y [m]","Z [m]","Liquid Pressure [Pa]","Liquid Saturation","Material ID"
ZONE T="1.00000E-02", STRANDID=1, SOLUTIONTIME=1.00000E-02, I=1, J=1, K=100, DATAPACKING=POINT
 5.000000E-01  5.000000E-01  5.000000E-02  1.692897E+05  1.000000E+00    1 
 5.000000E-01  5.000000E-01  1.500000E-01  1.683117E+05  1.000000E+00    1 
 5.000000E-01  5.000000E-01  2.500000E-01  1.673337E+05  1.000000E+00    1 
 5.000000E-01  5.000000E-01  3.500000E-01  1.663558E+05  1.000000E+00    1 
 5.000000E-01  5.000000E-01  4.500000E-01  1.653778E+05  1.000000E+00    1 
 5.000000E-01  5.000000E-01  5.500000E-01  1.643998E+05  1.000000E+00    1 
 5.000000E-01  5.000000E-01  6.500000E-01  1.634218E+05  1.000000E+00    1 
 5.000000E-01  5.000000E-01  7.500000E-01  1.624438E+05  1.000000E+00    1 
 5.000000E-01  5.000000E-01  8.500000E-01  1.614658E+05  1.000000E+00    1 
 5.000000E-01  5.000000E-01  9.500000E-01  1.604878E+05  1.000000E+00    1 
 5.000000E-01  5.000000E-01  1.050000E+00  1.595098E+05  1.000000E+00    1 
 5.000000E-01  5.000000E-01  1.150000E+00  1.585318E+05  1.000000E+00    1 
 5.000000E-01  5.000000E-01  1.250000E+00  1.575539E+05  1.000000E+00    1 
 5.000000E-01  5.000000E-01  1.350000E+00  1.565759E+05  1.000000E+00    1 
 5.000000E-01  5.000000E-01  1.450000E+00  1.555979E+05  1.000000E+00    1 
 5.000000E-01  5.000000E-01  1.550000E+00  1.546199E+05  1.000000E+00    1 
 5.000000E-01  5.000000E-01  1.650000E+00  1.536419E+05  1.000000E+00    1 
 5.000000E-01  5.000000E-01  1.750000E+00  1.526639E+05  1.000000E+00    1 
 5.000000E-01  5.000000E-01  1.850000E+00  1.516859E+05  1.000000E+00    1 
 5.000000E-01  5.000000E-01  1.950000E+00  1.507080E+05  1.000000E+00    1 
 5.000000E-01  5.000000E-01  2.050000E+00  1.497300E+05  1.000000E+00    1 
 5.000000E-01  5.000000E-01  2.150000E+00  1.487520E+05  1.000000E+00    1 
 5.000000E-01  5.000000E-01  2.250000E+00  1.477740E+05  1.000000E+00    1 
 5.000000E-01  5.000000E-01  2.350000E+00  1.467960E+05  1.000000E+00    1 
 5.000000E-01  5.000000E-01  2.450000E+00  1.458180E+05  1.000000E+00    1 
 5.000000E-01  5.000000E-01  2.550000E+00  1.448401E+05  1.000000E+00    1 
 5.000000E-01  5.000000E-01  2.650000E+00  1.438621E+05  1.000000E+00    1 
 5.000000E-01  5.000000E-01  2.750000E+00  1.428841E+05  1.000000E+00    1 
 5.000000E-01  5.000000E-01  2.850000E+00  1.419061E+05  1.000000E+00    1 
 5.000000E-01  5.000000E-01  2.950000E+00  1.409281E+05  1.000000E+00    1 
 5.000000E-01  5.000000E-01  3.050000E+00  1.399502E+05  1.000000E+00    1 
 5.000000E-01  5.000000E-01  3.150000E+00  1.389722E+05  1.000000E+00    1 
 5.000000E-01  5.000000E-01  3.250000E+00  1.379942E+05  1.000000E+00    1 
 5.000000E-01  5.000000E-01  3.350000E+00  1.370162E+05  1.000000E+00    1 
 5.000000E-01  5.000000E-01  3.450000E+00  1.360382E+05  1.000000E+00    1 
 5.000000E-01  5.000000E-01  3.550000E+00  1.350603E+05  1.000000E+00    1 
 5.000000E-01  5.000000E-01  3.650000E+00  1.340823E+05  1.000000E+00    1 
 5.000000E-01  5.000000E-01  3.750000E+00  1.331043E+05  1.000000E+00    1 
 5.000000E-01  5.000000E-01  3.850000E+00  1.321263E+05  1.000000E+00    1 
 5.000000E-01  5.000000E-01  3.950000E+00  1.311484E+05  1.000000E+00    1 
 5.000000E-01  5.000000E-01  4.050000E+00  1.301704E+05  1.000000E+00    1 
 5.000000E-01  5.000000E-01  4.150000E+00  1.291924E+05  1.000000E+00    1 
 5.000000E-01  5.000000E-01  4.250000E+00  1.282144E+05  1.000000E+00    1 
 5.000000E-01  5.000000E-01  4.350000E+00  1.272365E+05  1.000000E+00    1 
 5.000000E-01  5.000000E-01  4.450000E+00  1.262585E+05  1.000000E+00    1 
 5.000000E-01  5.000000E-01  4.550000E+00  1.252805E+05  1.000000E+00    1 
 5.000000E-01  5.000000E-01  4.650000E+00  1.243025E+05  1.000000E+00    1 
 5.000000E-01  5.000000E-01  4.750000E+00  1.233246E+05  1.000000E+00    1 
 5.000000E-01  5.000000E-01  4.850000E+00  1.223466E+05  1.000000E+00    1 
 5.000000E-01  5.000000E-01  4.950000E+00  1.213686E+05  1.000000E+00    1 
 5.000000E-01  5.000000E-01  5.050000E+00  1.203907E+05  1.000000E+00    1 
 5.000000E-01  5.000000E-01  5.150000E+00  1.194127E+05  1.000000E+00    1 
 5.000000E-01  5.000000E-01  5.250000E+00  1.184347E+05  1.000000E+00    1 
 5.000000E-01  5.000000E-01  5.350000E+00  1.174567E+05  1.000000E+00    1 
 5.000000E-01  5.000000E-01  5.450000E+00  1.164788E+05  1.000000E+00    1 
 5.000000E-01  5.000000E-01  5.550000E+00  1.155008E+05  1.000000E+00    1 
 5.000000E-01  5.000000E-01  5.650000E+00  1.145228E+05  1.000000E+00    1 
 5.000000E-01  5.000000E-01  5.750000E+00  1.135449E+05  1.000000E+00    1 
 5.000000E-01  5.000000E-01  5.850000E+00  1.125669E+05  1.000000E+00    1 
 5.000000E-01  5.000000E-01  5.950000E+00  1.115889E+05  1.000000E+00    1 
 5.000000E-01  5.000000E-01  6.050000E+00  1.106110E+05  1.000000E+00    1 
 5.000000E-01  5.000000E-01  6.150000E+00  1.096330E+05  1.000000E+00    1 
 5.000000E-01  5.000000E-01  6.250000E+00  1.086550E+05  1.000000E+00    1 
 5.000000E-01  5.000000E-01  6.350000E+00  1.076771E+05  1.000000E+00    1 
 5.000000E-01  5.000000E-01  6.450000E+00  1.066991E+05  1.000000E+00    1 
 5.000000E-01  5.000000E-01  6.550000E+00  1.057211E+05  1.000000E+00    1 
 5.000000E-01  5.000000E-01  6.650000E+00  1.047432E+05  1.000000E+00    1 
 5.000000E-01  5.000000E-01  6.750000E+00  1.037652E+05  1.000000E+00    1 
 5.000000E-01  5.000000E-01  6.850000E+00  1.027873E+05  1.000000E+00    1 
 5.000000E-01  5.000000E-01  6.950000E+00  1.018093E+05  1.000000E+00    1 
 5.000000E-01  5.000000E-01  7.050000E+00  1.008313E+05  9.989053E-01    1 
 5.000000E-01  5.000000E-01  7.150000E+00  9.985336E+04  9.904097E-01    1 
 5.000000E-01  5.000000E-01  7.250000E+00  9.887537E+04  9.741544E-01    1 
 5.000000E-01  5.000000E-01  7.350000E+00  9.789735E+04  9.513755E-01    1 
 5.000000E-01  5.000000E-01  7.450000E+00  9.691930E+04  9.236103E-01    1 
 5.000000E-01  5.000000E-01  7.550000E+00  9.594119E+04  8.924507E-01    1 
 5.000000E-01  5.000000E-01  7.650000E+00  9.496301E+04  8.593520E-01    1 
 5.000000E-01  5.000000E-01  7.750000E+00  9.398473E+04  8.255243E-01    1 
 5.000000E-01  5.000000E-01  7.850000E+00  9.300631E+04  7.918970E-01    1 
 5.000000E-01  5.000000E-01  7.950000E+00  9.202770E+04  7.591332E-01    1 
 5.000000E-01  5.000000E-01  8.050000E+00  9.104884E+04  7.276702E-01    1 
 5.000000E-01  5.000000E-01  8.150000E+00  9.006965E+04  6.977687E-01    1 
 5.000000E-01  5.000000E-01  8.250000E+00  8.909003E+04  6.695582E-01    1 
 5.000000E-01  5.000000E-01  8.350000E+00  8.810984E+04  6.430757E-01    1 
 5.000000E-01  5.000000E-01  8.450000E+00  8.712892E+04  6.182964E-01    1 
 5.000000E-01  5.000000E-01  8.550000E+00  8.614704E+04  5.951558E-01    1 
 5.000000E-01  5.000000E-01  8.650000E+00  8.516393E+04  5.735660E-01    1 
 5.000000E-01  5.000000E-01  8.750000E+00  8.417922E+04  5.534263E-01    1 
 5.000000E-01  5.000000E-01  8.850000E+00  8.319247E+04  5.346313E-01    1 
 5.000000E-01  5.000000E-01  8.950000E+00  8.220309E+04  5.170748E-01    1 
 5.000000E-01  5.000000E-01  9.050000E+00  8.121031E+04  5.006532E-01    1 
 5.000000E-01  5.000000E-01  9.150000E+00  8.021317E+04  4.852670E-01    1 
 5.000000E-01  5.000000E-01  9.250000E+00  7.921041E+04  4.708212E-01    1 
 5.000000E-01  5.000000E-01  9.350000E+00  7.820043E+04  4.572256E-01    1 
 5.000000E-01  5.000000E-01  9.450000E+00  7.718119E+04  4.443947E-01    1 
 5.000000E-01  5.000000E-01  9.550000E+00  7.615012E+04  4.322471E-01    1 
 5.000000E-01  5.000000E-01  9.650000E+00  7.510398E+04  4.207050E-01    1 
 5.000000E-01  5.000000E-01  9.750000E+00  7.403877E+04  4.096940E-01    1 
 5.000000E-01  5.000000E-01  9.850000E+00  7.294961E+04  3.991432E-01    1 
 5.000000E-01  5.000000E-01  9.950000E+00  7.183066E+04  3.889851E-01    1 
