TITLE = "  2.50000E+00 [h]"
VARIABLES="X [m]","Y [m]","Z [m]","Total Particle_aq [M]","Total Br- [M]","Particle_im [mol/m^3]","Material ID"
ZONE T="2.50000E+00", STRANDID=1, SOLUTIONTIME=2.50000E+00, I=50, J=1, K=1, DATAPACKING=POINT
 1.500000E-03  1.108000E-02  1.108000E-02  9.911494E-21  1.000000E-20  1.840114E+02    1 
 4.500000E-03  1.108000E-02  1.108000E-02  9.805314E-21  1.000000E-20  1.820400E+02    1 
 7.500000E-03  1.108000E-02  1.108000E-02  9.700276E-21  1.000000E-20  1.800898E+02    1 
 1.050000E-02  1.108000E-02  1.108000E-02  9.596372E-21  1.000000E-20  1.781605E+02    1 
 1.350000E-02  1.108000E-02  1.108000E-02  9.493606E-21  1.000001E-20  1.762519E+02    1 
 1.650000E-02  1.108000E-02  1.108000E-02  9.391998E-21  1.000003E-20  1.743637E+02    1 
 1.950000E-02  1.108000E-02  1.108000E-02  9.291612E-21  1.000007E-20  1.724958E+02    1 
 2.250000E-02  1.108000E-02  1.108000E-02  9.192602E-21  1.000017E-20  1.706478E+02    1 
 2.550000E-02  1.108000E-02  1.108000E-02  9.095322E-21  1.000038E-20  1.688197E+02    1 
 2.850000E-02  1.108000E-02  1.108000E-02  9.000542E-21  1.000086E-20  1.670111E+02    1 
 3.150000E-02  1.108000E-02  1.108000E-02  8.909913E-21  1.000191E-20  1.652219E+02    1 
 3.450000E-02  1.108000E-02  1.108000E-02  8.826892E-21  1.000415E-20  1.634519E+02    1 
 3.750000E-02  1.108000E-02  1.108000E-02  8.758629E-21  1.000890E-20  1.617008E+02    1 
 4.050000E-02  1.108000E-02  1.108000E-02  8.719708E-21  1.001883E-20  1.599685E+02    1 
 4.350000E-02  1.108000E-02  1.108000E-02  8.739527E-21  1.003934E-20  1.582548E+02    1 
 4.650000E-02  1.108000E-02  1.108000E-02  8.876670E-21  1.008119E-20  1.565594E+02    1 
 4.950000E-02  1.108000E-02  1.108000E-02  9.246620E-21  1.016563E-20  1.548822E+02    1 
 5.250000E-02  1.108000E-02  1.108000E-02  1.007464E-20  1.033422E-20  1.532229E+02    1 
 5.550000E-02  1.108000E-02  1.108000E-02  1.179566E-20  1.066735E-20  1.515814E+02    1 
 5.850000E-02  1.108000E-02  1.108000E-02  1.524124E-20  1.131901E-20  1.499575E+02    1 
 6.150000E-02  1.108000E-02  1.108000E-02  2.198587E-20  1.258147E-20  1.483510E+02    1 
 6.450000E-02  1.108000E-02  1.108000E-02  3.498281E-20  1.500421E-20  1.467617E+02    1 
 6.750000E-02  1.108000E-02  1.108000E-02  5.972043E-20  1.961082E-20  1.451895E+02    1 
 7.050000E-02  1.108000E-02  1.108000E-02  1.063065E-19  2.829118E-20  1.436341E+02    1 
 7.350000E-02  1.108000E-02  1.108000E-02  1.931910E-19  4.450392E-20  1.420953E+02    1 
 7.650000E-02  1.108000E-02  1.108000E-02  3.537588E-19  7.452411E-20  1.405730E+02    1 
 7.950000E-02  1.108000E-02  1.108000E-02  6.479013E-19  1.296403E-19  1.390671E+02    1 
 8.250000E-02  1.108000E-02  1.108000E-02  1.182157E-18  2.299906E-19  1.375773E+02    1 
 8.550000E-02  1.108000E-02  1.108000E-02  2.144471E-18  4.112052E-19  1.361034E+02    1 
 8.850000E-02  1.108000E-02  1.108000E-02  3.863687E-18  7.358142E-19  1.346453E+02    1 
 9.150000E-02  1.108000E-02  1.108000E-02  6.910538E-18  1.312681E-18  1.332029E+02    1 
 9.450000E-02  1.108000E-02  1.108000E-02  1.226770E-17  2.329841E-18  1.317759E+02    1 
 9.750000E-02  1.108000E-02  1.108000E-02  2.161387E-17  4.109563E-18  1.303641E+02    1 
 1.005000E-01  1.108000E-02  1.108000E-02  3.779451E-17  7.199934E-18  1.289675E+02    1 
 1.035000E-01  1.108000E-02  1.108000E-02  6.559590E-17  1.252604E-17  1.275859E+02    1 
 1.065000E-01  1.108000E-02  1.108000E-02  1.130081E-16  2.163757E-17  1.262191E+02    1 
 1.095000E-01  1.108000E-02  1.108000E-02  1.932694E-16  3.711130E-17  1.248669E+02    1 
 1.125000E-01  1.108000E-02  1.108000E-02  3.281502E-16  6.320011E-17  1.235292E+02    1 
 1.155000E-01  1.108000E-02  1.108000E-02  5.531841E-16  1.068713E-16  1.222058E+02    1 
 1.185000E-01  1.108000E-02  1.108000E-02  9.259299E-16  1.794528E-16  1.208966E+02    1 
 1.215000E-01  1.108000E-02  1.108000E-02  1.538884E-15  2.992173E-16  1.196015E+02    1 
 1.245000E-01  1.108000E-02  1.108000E-02  2.539398E-15  4.953838E-16  1.183202E+02    1 
 1.275000E-01  1.108000E-02  1.108000E-02  4.159778E-15  8.141887E-16  1.170526E+02    1 
 1.305000E-01  1.108000E-02  1.108000E-02  6.761185E-15  1.327775E-15  1.157987E+02    1 
 1.335000E-01  1.108000E-02  1.108000E-02  1.089311E-14  2.146278E-15  1.145582E+02    1 
 1.365000E-01  1.108000E-02  1.108000E-02  1.735976E-14  3.431394E-15  1.133314E+02    1 
 1.395000E-01  1.108000E-02  1.108000E-02  2.724589E-14  5.401863E-15  1.121196E+02    1 
 1.425000E-01  1.108000E-02  1.108000E-02  4.172589E-14  8.295309E-15  1.109293E+02    1 
 1.455000E-01  1.108000E-02  1.108000E-02  6.107425E-14  1.216923E-14  1.097926E+02    1 
 1.485000E-01  1.108000E-02  1.108000E-02  8.104931E-14  1.617368E-14  1.088618E+02    1 
