TITLE = "  4.00000E+00 [d]"
VARIABLES="X [m]","Y [m]","Z [m]","Liquid Pressure [Pa]","Liquid Saturation","Total Tracer [M]","Material ID"
ZONE T="4.00000E+00", STRANDID=1, SOLUTIONTIME=4.00000E+00, I=100, J=1, K=1, DATAPACKING=POINT
 2.000000E-01  5.000000E-01  5.000000E-01  1.451351E+05  1.000000E+00  9.996917E-01    1 
 6.000000E-01  5.000000E-01  5.000000E-01  1.447440E+05  1.000000E+00  9.990457E-01    1 
 1.000000E+00  5.000000E-01  5.000000E-01  1.443528E+05  1.000000E+00  9.983388E-01    1 
 1.400000E+00  5.000000E-01  5.000000E-01  1.439617E+05  1.000000E+00  9.975678E-01    1 
 1.800000E+00  5.000000E-01  5.000000E-01  1.435705E+05  1.000000E+00  9.967295E-01    1 
 2.200000E+00  5.000000E-01  5.000000E-01  1.431794E+05  1.000000E+00  9.958204E-01    1 
 2.600000E+00  5.000000E-01  5.000000E-01  1.427882E+05  1.000000E+00  9.948369E-01    1 
 3.000000E+00  5.000000E-01  5.000000E-01  1.423970E+05  1.000000E+00  9.937756E-01    1 
 3.400000E+00  5.000000E-01  5.000000E-01  1.420059E+05  1.000000E+00  9.926329E-01    1 
 3.800000E+00  5.000000E-01  5.000000E-01  1.416147E+05  1.000000E+00  9.914051E-01    1 
 4.200000E+00  5.000000E-01  5.000000E-01  1.412236E+05  1.000000E+00  9.900885E-01    1 
 4.600000E+00  5.000000E-01  5.000000E-01  1.408324E+05  1.000000E+00  9.886795E-01    1 
 5.000000E+00  5.000000E-01  5.000000E-01  1.404412E+05  1.000000E+00  9.871741E-01    1 
 5.400000E+00  5.000000E-01  5.000000E-01  1.400501E+05  1.000000E+00  9.855687E-01    1 
 5.800000E+00  5.000000E-01  5.000000E-01  1.396589E+05  1.000000E+00  9.838594E-01    1 
 6.200000E+00  5.000000E-01  5.000000E-01  1.392678E+05  1.000000E+00  9.820424E-01    1 
 6.600000E+00  5.000000E-01  5.000000E-01  1.388766E+05  1.000000E+00  9.801140E-01    1 
 7.000000E+00  5.000000E-01  5.000000E-01  1.384854E+05  1.000000E+00  9.780702E-01    1 
 7.400000E+00  5.000000E-01  5.000000E-01  1.380943E+05  1.000000E+00  9.759073E-01    1 
 7.800000E+00  5.000000E-01  5.000000E-01  1.377031E+05  1.000000E+00  9.736216E-01    1 
 8.200000E+00  5.000000E-01  5.000000E-01  1.373120E+05  1.000000E+00  9.712093E-01    1 
 8.600000E+00  5.000000E-01  5.000000E-01  1.369208E+05  1.000000E+00  9.686667E-01    1 
 9.000000E+00  5.000000E-01  5.000000E-01  1.365296E+05  1.000000E+00  9.659903E-01    1 
 9.400000E+00  5.000000E-01  5.000000E-01  1.361385E+05  1.000000E+00  9.631763E-01    1 
 9.800000E+00  5.000000E-01  5.000000E-01  1.357473E+05  1.000000E+00  9.602215E-01    1 
 1.020000E+01  5.000000E-01  5.000000E-01  1.353562E+05  1.000000E+00  9.571223E-01    1 
 1.060000E+01  5.000000E-01  5.000000E-01  1.349650E+05  1.000000E+00  9.538755E-01    1 
 1.100000E+01  5.000000E-01  5.000000E-01  1.345738E+05  1.000000E+00  9.504779E-01    1 
 1.140000E+01  5.000000E-01  5.000000E-01  1.341827E+05  1.000000E+00  9.469263E-01    1 
 1.180000E+01  5.000000E-01  5.000000E-01  1.337915E+05  1.000000E+00  9.432180E-01    1 
 1.220000E+01  5.000000E-01  5.000000E-01  1.334004E+05  1.000000E+00  9.393500E-01    1 
 1.260000E+01  5.000000E-01  5.000000E-01  1.330092E+05  1.000000E+00  9.353197E-01    1 
 1.300000E+01  5.000000E-01  5.000000E-01  1.326180E+05  1.000000E+00  9.311247E-01    1 
 1.340000E+01  5.000000E-01  5.000000E-01  1.322269E+05  1.000000E+00  9.267625E-01    1 
 1.380000E+01  5.000000E-01  5.000000E-01  1.318357E+05  1.000000E+00  9.222312E-01    1 
 1.420000E+01  5.000000E-01  5.000000E-01  1.314445E+05  1.000000E+00  9.175287E-01    1 
 1.460000E+01  5.000000E-01  5.000000E-01  1.310534E+05  1.000000E+00  9.126533E-01    1 
 1.500000E+01  5.000000E-01  5.000000E-01  1.306622E+05  1.000000E+00  9.076036E-01    1 
 1.540000E+01  5.000000E-01  5.000000E-01  1.302711E+05  1.000000E+00  9.023781E-01    1 
 1.580000E+01  5.000000E-01  5.000000E-01  1.298799E+05  1.000000E+00  8.969759E-01    1 
 1.620000E+01  5.000000E-01  5.000000E-01  1.294887E+05  1.000000E+00  8.913961E-01    1 
 1.660000E+01  5.000000E-01  5.000000E-01  1.290976E+05  1.000000E+00  8.856382E-01    1 
 1.700000E+01  5.000000E-01  5.000000E-01  1.287064E+05  1.000000E+00  8.797018E-01    1 
 1.740000E+01  5.000000E-01  5.000000E-01  1.283153E+05  1.000000E+00  8.735869E-01    1 
 1.780000E+01  5.000000E-01  5.000000E-01  1.279241E+05  1.000000E+00  8.672938E-01    1 
 1.820000E+01  5.000000E-01  5.000000E-01  1.275329E+05  1.000000E+00  8.608230E-01    1 
 1.860000E+01  5.000000E-01  5.000000E-01  1.271418E+05  1.000000E+00  8.541752E-01    1 
 1.900000E+01  5.000000E-01  5.000000E-01  1.267506E+05  1.000000E+00  8.473516E-01    1 
 1.940000E+01  5.000000E-01  5.000000E-01  1.263594E+05  1.000000E+00  8.403535E-01    1 
 1.980000E+01  5.000000E-01  5.000000E-01  1.259683E+05  1.000000E+00  8.331828E-01    1 
 2.020000E+01  5.000000E-01  5.000000E-01  1.255771E+05  1.000000E+00  8.258414E-01    1 
 2.060000E+01  5.000000E-01  5.000000E-01  1.251860E+05  1.000000E+00  8.183317E-01    1 
 2.100000E+01  5.000000E-01  5.000000E-01  1.247948E+05  1.000000E+00  8.106564E-01    1 
 2.140000E+01  5.000000E-01  5.000000E-01  1.244036E+05  1.000000E+00  8.028185E-01    1 
 2.180000E+01  5.000000E-01  5.000000E-01  1.240125E+05  1.000000E+00  7.948214E-01    1 
 2.220000E+01  5.000000E-01  5.000000E-01  1.236213E+05  1.000000E+00  7.866687E-01    1 
 2.260000E+01  5.000000E-01  5.000000E-01  1.232301E+05  1.000000E+00  7.783646E-01    1 
 2.300000E+01  5.000000E-01  5.000000E-01  1.228390E+05  1.000000E+00  7.699135E-01    1 
 2.340000E+01  5.000000E-01  5.000000E-01  1.224478E+05  1.000000E+00  7.613202E-01    1 
 2.380000E+01  5.000000E-01  5.000000E-01  1.220567E+05  1.000000E+00  7.525898E-01    1 
 2.420000E+01  5.000000E-01  5.000000E-01  1.216655E+05  1.000000E+00  7.437279E-01    1 
 2.460000E+01  5.000000E-01  5.000000E-01  1.212743E+05  1.000000E+00  7.347404E-01    1 
 2.500000E+01  5.000000E-01  5.000000E-01  1.208832E+05  1.000000E+00  7.256338E-01    1 
 2.540000E+01  5.000000E-01  5.000000E-01  1.204920E+05  1.000000E+00  7.164148E-01    1 
 2.580000E+01  5.000000E-01  5.000000E-01  1.201008E+05  1.000000E+00  7.070905E-01    1 
 2.620000E+01  5.000000E-01  5.000000E-01  1.197097E+05  1.000000E+00  6.976688E-01    1 
 2.660000E+01  5.000000E-01  5.000000E-01  1.193185E+05  1.000000E+00  6.881576E-01    1 
 2.700000E+01  5.000000E-01  5.000000E-01  1.189273E+05  1.000000E+00  6.785657E-01    1 
 2.740000E+01  5.000000E-01  5.000000E-01  1.185362E+05  1.000000E+00  6.689022E-01    1 
 2.780000E+01  5.000000E-01  5.000000E-01  1.181450E+05  1.000000E+00  6.591768E-01    1 
 2.820000E+01  5.000000E-01  5.000000E-01  1.177539E+05  1.000000E+00  6.493998E-01    1 
 2.860000E+01  5.000000E-01  5.000000E-01  1.173627E+05  1.000000E+00  6.395820E-01    1 
 2.900000E+01  5.000000E-01  5.000000E-01  1.169715E+05  1.000000E+00  6.297351E-01    1 
 2.940000E+01  5.000000E-01  5.000000E-01  1.165804E+05  1.000000E+00  6.198712E-01    1 
 2.980000E+01  5.000000E-01  5.000000E-01  1.161892E+05  1.000000E+00  6.100034E-01    1 
 3.020000E+01  5.000000E-01  5.000000E-01  1.157980E+05  1.000000E+00  6.001456E-01    1 
 3.060000E+01  5.000000E-01  5.000000E-01  1.154069E+05  1.000000E+00  5.903125E-01    1 
 3.100000E+01  5.000000E-01  5.000000E-01  1.150157E+05  1.000000E+00  5.805198E-01    1 
 3.140000E+01  5.000000E-01  5.000000E-01  1.146245E+05  1.000000E+00  5.707842E-01    1 
 3.180000E+01  5.000000E-01  5.000000E-01  1.142334E+05  1.000000E+00  5.611238E-01    1 
 3.220000E+01  5.000000E-01  5.000000E-01  1.138422E+05  1.000000E+00  5.515576E-01    1 
 3.260000E+01  5.000000E-01  5.000000E-01  1.134510E+05  1.000000E+00  5.421064E-01    1 
 3.300000E+01  5.000000E-01  5.000000E-01  1.130599E+05  1.000000E+00  5.327921E-01    1 
 3.340000E+01  5.000000E-01  5.000000E-01  1.126687E+05  1.000000E+00  5.236386E-01    1 
 3.380000E+01  5.000000E-01  5.000000E-01  1.122776E+05  1.000000E+00  5.146715E-01    1 
 3.420000E+01  5.000000E-01  5.000000E-01  1.118864E+05  1.000000E+00  5.059185E-01    1 
 3.460000E+01  5.000000E-01  5.000000E-01  1.114952E+05  1.000000E+00  4.974094E-01    1 
 3.500000E+01  5.000000E-01  5.000000E-01  1.111041E+05  1.000000E+00  4.891765E-01    1 
 3.540000E+01  5.000000E-01  5.000000E-01  1.107129E+05  1.000000E+00  4.812550E-01    1 
 3.580000E+01  5.000000E-01  5.000000E-01  1.103217E+05  1.000000E+00  4.736828E-01    1 
 3.620000E+01  5.000000E-01  5.000000E-01  1.099306E+05  1.000000E+00  4.665012E-01    1 
 3.660000E+01  5.000000E-01  5.000000E-01  1.095394E+05  1.000000E+00  4.597552E-01    1 
 3.700000E+01  5.000000E-01  5.000000E-01  1.091482E+05  1.000000E+00  4.534937E-01    1 
 3.740000E+01  5.000000E-01  5.000000E-01  1.087571E+05  1.000000E+00  4.477699E-01    1 
 3.780000E+01  5.000000E-01  5.000000E-01  1.083659E+05  1.000000E+00  4.426420E-01    1 
 3.820000E+01  5.000000E-01  5.000000E-01  1.079747E+05  1.000000E+00  4.381731E-01    1 
 3.860000E+01  5.000000E-01  5.000000E-01  1.075836E+05  1.000000E+00  4.344325E-01    1 
 3.900000E+01  5.000000E-01  5.000000E-01  1.071924E+05  1.000000E+00  4.314957E-01    1 
 3.940000E+01  5.000000E-01  5.000000E-01  1.068012E+05  1.000000E+00  4.294450E-01    1 
 3.980000E+01  5.000000E-01  5.000000E-01  1.064101E+05  1.000000E+00  4.283704E-01    1 
