TITLE = "  8.00000E+00 [d]"
VARIABLES="X [m]","Y [m]","Z [m]","Liquid Pressure [Pa]","Liquid Saturation","Total Tracer [M]","Material ID"
ZONE T="8.00000E+00", STRANDID=1, SOLUTIONTIME=8.00000E+00, I=100, J=1, K=1, DATAPACKING=POINT
 2.000000E-01  5.000000E-01  5.000000E-01  1.451351E+05  1.000000E+00  9.999780E-01    1 
 6.000000E-01  5.000000E-01  5.000000E-01  1.447440E+05  1.000000E+00  9.999320E-01    1 
 1.000000E+00  5.000000E-01  5.000000E-01  1.443528E+05  1.000000E+00  9.998816E-01    1 
 1.400000E+00  5.000000E-01  5.000000E-01  1.439617E+05  1.000000E+00  9.998266E-01    1 
 1.800000E+00  5.000000E-01  5.000000E-01  1.435705E+05  1.000000E+00  9.997666E-01    1 
 2.200000E+00  5.000000E-01  5.000000E-01  1.431794E+05  1.000000E+00  9.997015E-01    1 
 2.600000E+00  5.000000E-01  5.000000E-01  1.427882E+05  1.000000E+00  9.996308E-01    1 
 3.000000E+00  5.000000E-01  5.000000E-01  1.423970E+05  1.000000E+00  9.995543E-01    1 
 3.400000E+00  5.000000E-01  5.000000E-01  1.420059E+05  1.000000E+00  9.994716E-01    1 
 3.800000E+00  5.000000E-01  5.000000E-01  1.416147E+05  1.000000E+00  9.993824E-01    1 
 4.200000E+00  5.000000E-01  5.000000E-01  1.412236E+05  1.000000E+00  9.992863E-01    1 
 4.600000E+00  5.000000E-01  5.000000E-01  1.408324E+05  1.000000E+00  9.991830E-01    1 
 5.000000E+00  5.000000E-01  5.000000E-01  1.404412E+05  1.000000E+00  9.990720E-01    1 
 5.400000E+00  5.000000E-01  5.000000E-01  1.400501E+05  1.000000E+00  9.989530E-01    1 
 5.800000E+00  5.000000E-01  5.000000E-01  1.396589E+05  1.000000E+00  9.988255E-01    1 
 6.200000E+00  5.000000E-01  5.000000E-01  1.392678E+05  1.000000E+00  9.986892E-01    1 
 6.600000E+00  5.000000E-01  5.000000E-01  1.388766E+05  1.000000E+00  9.985435E-01    1 
 7.000000E+00  5.000000E-01  5.000000E-01  1.384854E+05  1.000000E+00  9.983880E-01    1 
 7.400000E+00  5.000000E-01  5.000000E-01  1.380943E+05  1.000000E+00  9.982222E-01    1 
 7.800000E+00  5.000000E-01  5.000000E-01  1.377031E+05  1.000000E+00  9.980457E-01    1 
 8.200000E+00  5.000000E-01  5.000000E-01  1.373120E+05  1.000000E+00  9.978580E-01    1 
 8.600000E+00  5.000000E-01  5.000000E-01  1.369208E+05  1.000000E+00  9.976584E-01    1 
 9.000000E+00  5.000000E-01  5.000000E-01  1.365296E+05  1.000000E+00  9.974466E-01    1 
 9.400000E+00  5.000000E-01  5.000000E-01  1.361385E+05  1.000000E+00  9.972219E-01    1 
 9.800000E+00  5.000000E-01  5.000000E-01  1.357473E+05  1.000000E+00  9.969837E-01    1 
 1.020000E+01  5.000000E-01  5.000000E-01  1.353562E+05  1.000000E+00  9.967316E-01    1 
 1.060000E+01  5.000000E-01  5.000000E-01  1.349650E+05  1.000000E+00  9.964649E-01    1 
 1.100000E+01  5.000000E-01  5.000000E-01  1.345738E+05  1.000000E+00  9.961830E-01    1 
 1.140000E+01  5.000000E-01  5.000000E-01  1.341827E+05  1.000000E+00  9.958854E-01    1 
 1.180000E+01  5.000000E-01  5.000000E-01  1.337915E+05  1.000000E+00  9.955713E-01    1 
 1.220000E+01  5.000000E-01  5.000000E-01  1.334004E+05  1.000000E+00  9.952401E-01    1 
 1.260000E+01  5.000000E-01  5.000000E-01  1.330092E+05  1.000000E+00  9.948912E-01    1 
 1.300000E+01  5.000000E-01  5.000000E-01  1.326180E+05  1.000000E+00  9.945239E-01    1 
 1.340000E+01  5.000000E-01  5.000000E-01  1.322269E+05  1.000000E+00  9.941375E-01    1 
 1.380000E+01  5.000000E-01  5.000000E-01  1.318357E+05  1.000000E+00  9.937315E-01    1 
 1.420000E+01  5.000000E-01  5.000000E-01  1.314445E+05  1.000000E+00  9.933050E-01    1 
 1.460000E+01  5.000000E-01  5.000000E-01  1.310534E+05  1.000000E+00  9.928573E-01    1 
 1.500000E+01  5.000000E-01  5.000000E-01  1.306622E+05  1.000000E+00  9.923879E-01    1 
 1.540000E+01  5.000000E-01  5.000000E-01  1.302711E+05  1.000000E+00  9.918959E-01    1 
 1.580000E+01  5.000000E-01  5.000000E-01  1.298799E+05  1.000000E+00  9.913806E-01    1 
 1.620000E+01  5.000000E-01  5.000000E-01  1.294887E+05  1.000000E+00  9.908414E-01    1 
 1.660000E+01  5.000000E-01  5.000000E-01  1.290976E+05  1.000000E+00  9.902776E-01    1 
 1.700000E+01  5.000000E-01  5.000000E-01  1.287064E+05  1.000000E+00  9.896883E-01    1 
 1.740000E+01  5.000000E-01  5.000000E-01  1.283153E+05  1.000000E+00  9.890730E-01    1 
 1.780000E+01  5.000000E-01  5.000000E-01  1.279241E+05  1.000000E+00  9.884309E-01    1 
 1.820000E+01  5.000000E-01  5.000000E-01  1.275329E+05  1.000000E+00  9.877614E-01    1 
 1.860000E+01  5.000000E-01  5.000000E-01  1.271418E+05  1.000000E+00  9.870636E-01    1 
 1.900000E+01  5.000000E-01  5.000000E-01  1.267506E+05  1.000000E+00  9.863371E-01    1 
 1.940000E+01  5.000000E-01  5.000000E-01  1.263594E+05  1.000000E+00  9.855811E-01    1 
 1.980000E+01  5.000000E-01  5.000000E-01  1.259683E+05  1.000000E+00  9.847950E-01    1 
 2.020000E+01  5.000000E-01  5.000000E-01  1.255771E+05  1.000000E+00  9.839783E-01    1 
 2.060000E+01  5.000000E-01  5.000000E-01  1.251860E+05  1.000000E+00  9.831303E-01    1 
 2.100000E+01  5.000000E-01  5.000000E-01  1.247948E+05  1.000000E+00  9.822504E-01    1 
 2.140000E+01  5.000000E-01  5.000000E-01  1.244036E+05  1.000000E+00  9.813383E-01    1 
 2.180000E+01  5.000000E-01  5.000000E-01  1.240125E+05  1.000000E+00  9.803934E-01    1 
 2.220000E+01  5.000000E-01  5.000000E-01  1.236213E+05  1.000000E+00  9.794153E-01    1 
 2.260000E+01  5.000000E-01  5.000000E-01  1.232301E+05  1.000000E+00  9.784037E-01    1 
 2.300000E+01  5.000000E-01  5.000000E-01  1.228390E+05  1.000000E+00  9.773582E-01    1 
 2.340000E+01  5.000000E-01  5.000000E-01  1.224478E+05  1.000000E+00  9.762786E-01    1 
 2.380000E+01  5.000000E-01  5.000000E-01  1.220567E+05  1.000000E+00  9.751647E-01    1 
 2.420000E+01  5.000000E-01  5.000000E-01  1.216655E+05  1.000000E+00  9.740165E-01    1 
 2.460000E+01  5.000000E-01  5.000000E-01  1.212743E+05  1.000000E+00  9.728339E-01    1 
 2.500000E+01  5.000000E-01  5.000000E-01  1.208832E+05  1.000000E+00  9.716170E-01    1 
 2.540000E+01  5.000000E-01  5.000000E-01  1.204920E+05  1.000000E+00  9.703660E-01    1 
 2.580000E+01  5.000000E-01  5.000000E-01  1.201008E+05  1.000000E+00  9.690812E-01    1 
 2.620000E+01  5.000000E-01  5.000000E-01  1.197097E+05  1.000000E+00  9.677631E-01    1 
 2.660000E+01  5.000000E-01  5.000000E-01  1.193185E+05  1.000000E+00  9.664121E-01    1 
 2.700000E+01  5.000000E-01  5.000000E-01  1.189273E+05  1.000000E+00  9.650290E-01    1 
 2.740000E+01  5.000000E-01  5.000000E-01  1.185362E+05  1.000000E+00  9.636146E-01    1 
 2.780000E+01  5.000000E-01  5.000000E-01  1.181450E+05  1.000000E+00  9.621699E-01    1 
 2.820000E+01  5.000000E-01  5.000000E-01  1.177539E+05  1.000000E+00  9.606963E-01    1 
 2.860000E+01  5.000000E-01  5.000000E-01  1.173627E+05  1.000000E+00  9.591950E-01    1 
 2.900000E+01  5.000000E-01  5.000000E-01  1.169715E+05  1.000000E+00  9.576676E-01    1 
 2.940000E+01  5.000000E-01  5.000000E-01  1.165804E+05  1.000000E+00  9.561161E-01    1 
 2.980000E+01  5.000000E-01  5.000000E-01  1.161892E+05  1.000000E+00  9.545425E-01    1 
 3.020000E+01  5.000000E-01  5.000000E-01  1.157980E+05  1.000000E+00  9.529492E-01    1 
 3.060000E+01  5.000000E-01  5.000000E-01  1.154069E+05  1.000000E+00  9.513387E-01    1 
 3.100000E+01  5.000000E-01  5.000000E-01  1.150157E+05  1.000000E+00  9.497142E-01    1 
 3.140000E+01  5.000000E-01  5.000000E-01  1.146245E+05  1.000000E+00  9.480787E-01    1 
 3.180000E+01  5.000000E-01  5.000000E-01  1.142334E+05  1.000000E+00  9.464360E-01    1 
 3.220000E+01  5.000000E-01  5.000000E-01  1.138422E+05  1.000000E+00  9.447900E-01    1 
 3.260000E+01  5.000000E-01  5.000000E-01  1.134510E+05  1.000000E+00  9.431452E-01    1 
 3.300000E+01  5.000000E-01  5.000000E-01  1.130599E+05  1.000000E+00  9.415063E-01    1 
 3.340000E+01  5.000000E-01  5.000000E-01  1.126687E+05  1.000000E+00  9.398787E-01    1 
 3.380000E+01  5.000000E-01  5.000000E-01  1.122776E+05  1.000000E+00  9.382681E-01    1 
 3.420000E+01  5.000000E-01  5.000000E-01  1.118864E+05  1.000000E+00  9.366809E-01    1 
 3.460000E+01  5.000000E-01  5.000000E-01  1.114952E+05  1.000000E+00  9.351239E-01    1 
 3.500000E+01  5.000000E-01  5.000000E-01  1.111041E+05  1.000000E+00  9.336045E-01    1 
 3.540000E+01  5.000000E-01  5.000000E-01  1.107129E+05  1.000000E+00  9.321309E-01    1 
 3.580000E+01  5.000000E-01  5.000000E-01  1.103217E+05  1.000000E+00  9.307118E-01    1 
 3.620000E+01  5.000000E-01  5.000000E-01  1.099306E+05  1.000000E+00  9.293567E-01    1 
 3.660000E+01  5.000000E-01  5.000000E-01  1.095394E+05  1.000000E+00  9.280759E-01    1 
 3.700000E+01  5.000000E-01  5.000000E-01  1.091482E+05  1.000000E+00  9.268803E-01    1 
 3.740000E+01  5.000000E-01  5.000000E-01  1.087571E+05  1.000000E+00  9.257819E-01    1 
 3.780000E+01  5.000000E-01  5.000000E-01  1.083659E+05  1.000000E+00  9.247936E-01    1 
 3.820000E+01  5.000000E-01  5.000000E-01  1.079747E+05  1.000000E+00  9.239292E-01    1 
 3.860000E+01  5.000000E-01  5.000000E-01  1.075836E+05  1.000000E+00  9.232034E-01    1 
 3.900000E+01  5.000000E-01  5.000000E-01  1.071924E+05  1.000000E+00  9.226322E-01    1 
 3.940000E+01  5.000000E-01  5.000000E-01  1.068012E+05  1.000000E+00  9.222327E-01    1 
 3.980000E+01  5.000000E-01  5.000000E-01  1.064101E+05  1.000000E+00  9.220231E-01    1 
