TITLE = "  6.00000E+00 [d]"
VARIABLES="X [m]","Y [m]","Z [m]","Liquid Pressure [Pa]","Liquid Saturation","Total Tracer [M]","Material ID"
ZONE T="6.00000E+00", STRANDID=1, SOLUTIONTIME=6.00000E+00, I=100, J=1, K=1, DATAPACKING=POINT
 2.000000E-01  5.000000E-01  5.000000E-01  1.451351E+05  1.000000E+00  9.999225E-01    1 
 6.000000E-01  5.000000E-01  5.000000E-01  1.447440E+05  1.000000E+00  9.997602E-01    1 
 1.000000E+00  5.000000E-01  5.000000E-01  1.443528E+05  1.000000E+00  9.995824E-01    1 
 1.400000E+00  5.000000E-01  5.000000E-01  1.439617E+05  1.000000E+00  9.993884E-01    1 
 1.800000E+00  5.000000E-01  5.000000E-01  1.435705E+05  1.000000E+00  9.991771E-01    1 
 2.200000E+00  5.000000E-01  5.000000E-01  1.431794E+05  1.000000E+00  9.989476E-01    1 
 2.600000E+00  5.000000E-01  5.000000E-01  1.427882E+05  1.000000E+00  9.986989E-01    1 
 3.000000E+00  5.000000E-01  5.000000E-01  1.423970E+05  1.000000E+00  9.984298E-01    1 
 3.400000E+00  5.000000E-01  5.000000E-01  1.420059E+05  1.000000E+00  9.981394E-01    1 
 3.800000E+00  5.000000E-01  5.000000E-01  1.416147E+05  1.000000E+00  9.978264E-01    1 
 4.200000E+00  5.000000E-01  5.000000E-01  1.412236E+05  1.000000E+00  9.974898E-01    1 
 4.600000E+00  5.000000E-01  5.000000E-01  1.408324E+05  1.000000E+00  9.971283E-01    1 
 5.000000E+00  5.000000E-01  5.000000E-01  1.404412E+05  1.000000E+00  9.967407E-01    1 
 5.400000E+00  5.000000E-01  5.000000E-01  1.400501E+05  1.000000E+00  9.963257E-01    1 
 5.800000E+00  5.000000E-01  5.000000E-01  1.396589E+05  1.000000E+00  9.958820E-01    1 
 6.200000E+00  5.000000E-01  5.000000E-01  1.392678E+05  1.000000E+00  9.954082E-01    1 
 6.600000E+00  5.000000E-01  5.000000E-01  1.388766E+05  1.000000E+00  9.949031E-01    1 
 7.000000E+00  5.000000E-01  5.000000E-01  1.384854E+05  1.000000E+00  9.943652E-01    1 
 7.400000E+00  5.000000E-01  5.000000E-01  1.380943E+05  1.000000E+00  9.937931E-01    1 
 7.800000E+00  5.000000E-01  5.000000E-01  1.377031E+05  1.000000E+00  9.931852E-01    1 
 8.200000E+00  5.000000E-01  5.000000E-01  1.373120E+05  1.000000E+00  9.925402E-01    1 
 8.600000E+00  5.000000E-01  5.000000E-01  1.369208E+05  1.000000E+00  9.918564E-01    1 
 9.000000E+00  5.000000E-01  5.000000E-01  1.365296E+05  1.000000E+00  9.911323E-01    1 
 9.400000E+00  5.000000E-01  5.000000E-01  1.361385E+05  1.000000E+00  9.903663E-01    1 
 9.800000E+00  5.000000E-01  5.000000E-01  1.357473E+05  1.000000E+00  9.895569E-01    1 
 1.020000E+01  5.000000E-01  5.000000E-01  1.353562E+05  1.000000E+00  9.887023E-01    1 
 1.060000E+01  5.000000E-01  5.000000E-01  1.349650E+05  1.000000E+00  9.878010E-01    1 
 1.100000E+01  5.000000E-01  5.000000E-01  1.345738E+05  1.000000E+00  9.868512E-01    1 
 1.140000E+01  5.000000E-01  5.000000E-01  1.341827E+05  1.000000E+00  9.858512E-01    1 
 1.180000E+01  5.000000E-01  5.000000E-01  1.337915E+05  1.000000E+00  9.847994E-01    1 
 1.220000E+01  5.000000E-01  5.000000E-01  1.334004E+05  1.000000E+00  9.836941E-01    1 
 1.260000E+01  5.000000E-01  5.000000E-01  1.330092E+05  1.000000E+00  9.825334E-01    1 
 1.300000E+01  5.000000E-01  5.000000E-01  1.326180E+05  1.000000E+00  9.813156E-01    1 
 1.340000E+01  5.000000E-01  5.000000E-01  1.322269E+05  1.000000E+00  9.800391E-01    1 
 1.380000E+01  5.000000E-01  5.000000E-01  1.318357E+05  1.000000E+00  9.787021E-01    1 
 1.420000E+01  5.000000E-01  5.000000E-01  1.314445E+05  1.000000E+00  9.773027E-01    1 
 1.460000E+01  5.000000E-01  5.000000E-01  1.310534E+05  1.000000E+00  9.758394E-01    1 
 1.500000E+01  5.000000E-01  5.000000E-01  1.306622E+05  1.000000E+00  9.743103E-01    1 
 1.540000E+01  5.000000E-01  5.000000E-01  1.302711E+05  1.000000E+00  9.727138E-01    1 
 1.580000E+01  5.000000E-01  5.000000E-01  1.298799E+05  1.000000E+00  9.710482E-01    1 
 1.620000E+01  5.000000E-01  5.000000E-01  1.294887E+05  1.000000E+00  9.693117E-01    1 
 1.660000E+01  5.000000E-01  5.000000E-01  1.290976E+05  1.000000E+00  9.675029E-01    1 
 1.700000E+01  5.000000E-01  5.000000E-01  1.287064E+05  1.000000E+00  9.656200E-01    1 
 1.740000E+01  5.000000E-01  5.000000E-01  1.283153E+05  1.000000E+00  9.636614E-01    1 
 1.780000E+01  5.000000E-01  5.000000E-01  1.279241E+05  1.000000E+00  9.616258E-01    1 
 1.820000E+01  5.000000E-01  5.000000E-01  1.275329E+05  1.000000E+00  9.595116E-01    1 
 1.860000E+01  5.000000E-01  5.000000E-01  1.271418E+05  1.000000E+00  9.573174E-01    1 
 1.900000E+01  5.000000E-01  5.000000E-01  1.267506E+05  1.000000E+00  9.550419E-01    1 
 1.940000E+01  5.000000E-01  5.000000E-01  1.263594E+05  1.000000E+00  9.526838E-01    1 
 1.980000E+01  5.000000E-01  5.000000E-01  1.259683E+05  1.000000E+00  9.502419E-01    1 
 2.020000E+01  5.000000E-01  5.000000E-01  1.255771E+05  1.000000E+00  9.477152E-01    1 
 2.060000E+01  5.000000E-01  5.000000E-01  1.251860E+05  1.000000E+00  9.451027E-01    1 
 2.100000E+01  5.000000E-01  5.000000E-01  1.247948E+05  1.000000E+00  9.424034E-01    1 
 2.140000E+01  5.000000E-01  5.000000E-01  1.244036E+05  1.000000E+00  9.396167E-01    1 
 2.180000E+01  5.000000E-01  5.000000E-01  1.240125E+05  1.000000E+00  9.367419E-01    1 
 2.220000E+01  5.000000E-01  5.000000E-01  1.236213E+05  1.000000E+00  9.337785E-01    1 
 2.260000E+01  5.000000E-01  5.000000E-01  1.232301E+05  1.000000E+00  9.307262E-01    1 
 2.300000E+01  5.000000E-01  5.000000E-01  1.228390E+05  1.000000E+00  9.275848E-01    1 
 2.340000E+01  5.000000E-01  5.000000E-01  1.224478E+05  1.000000E+00  9.243544E-01    1 
 2.380000E+01  5.000000E-01  5.000000E-01  1.220567E+05  1.000000E+00  9.210353E-01    1 
 2.420000E+01  5.000000E-01  5.000000E-01  1.216655E+05  1.000000E+00  9.176277E-01    1 
 2.460000E+01  5.000000E-01  5.000000E-01  1.212743E+05  1.000000E+00  9.141325E-01    1 
 2.500000E+01  5.000000E-01  5.000000E-01  1.208832E+05  1.000000E+00  9.105505E-01    1 
 2.540000E+01  5.000000E-01  5.000000E-01  1.204920E+05  1.000000E+00  9.068829E-01    1 
 2.580000E+01  5.000000E-01  5.000000E-01  1.201008E+05  1.000000E+00  9.031313E-01    1 
 2.620000E+01  5.000000E-01  5.000000E-01  1.197097E+05  1.000000E+00  8.992974E-01    1 
 2.660000E+01  5.000000E-01  5.000000E-01  1.193185E+05  1.000000E+00  8.953833E-01    1 
 2.700000E+01  5.000000E-01  5.000000E-01  1.189273E+05  1.000000E+00  8.913916E-01    1 
 2.740000E+01  5.000000E-01  5.000000E-01  1.185362E+05  1.000000E+00  8.873251E-01    1 
 2.780000E+01  5.000000E-01  5.000000E-01  1.181450E+05  1.000000E+00  8.831872E-01    1 
 2.820000E+01  5.000000E-01  5.000000E-01  1.177539E+05  1.000000E+00  8.789816E-01    1 
 2.860000E+01  5.000000E-01  5.000000E-01  1.173627E+05  1.000000E+00  8.747126E-01    1 
 2.900000E+01  5.000000E-01  5.000000E-01  1.169715E+05  1.000000E+00  8.703849E-01    1 
 2.940000E+01  5.000000E-01  5.000000E-01  1.165804E+05  1.000000E+00  8.660040E-01    1 
 2.980000E+01  5.000000E-01  5.000000E-01  1.161892E+05  1.000000E+00  8.615757E-01    1 
 3.020000E+01  5.000000E-01  5.000000E-01  1.157980E+05  1.000000E+00  8.571066E-01    1 
 3.060000E+01  5.000000E-01  5.000000E-01  1.154069E+05  1.000000E+00  8.526041E-01    1 
 3.100000E+01  5.000000E-01  5.000000E-01  1.150157E+05  1.000000E+00  8.480761E-01    1 
 3.140000E+01  5.000000E-01  5.000000E-01  1.146245E+05  1.000000E+00  8.435316E-01    1 
 3.180000E+01  5.000000E-01  5.000000E-01  1.142334E+05  1.000000E+00  8.389801E-01    1 
 3.220000E+01  5.000000E-01  5.000000E-01  1.138422E+05  1.000000E+00  8.344325E-01    1 
 3.260000E+01  5.000000E-01  5.000000E-01  1.134510E+05  1.000000E+00  8.299003E-01    1 
 3.300000E+01  5.000000E-01  5.000000E-01  1.130599E+05  1.000000E+00  8.253962E-01    1 
 3.340000E+01  5.000000E-01  5.000000E-01  1.126687E+05  1.000000E+00  8.209341E-01    1 
 3.380000E+01  5.000000E-01  5.000000E-01  1.122776E+05  1.000000E+00  8.165291E-01    1 
 3.420000E+01  5.000000E-01  5.000000E-01  1.118864E+05  1.000000E+00  8.121976E-01    1 
 3.460000E+01  5.000000E-01  5.000000E-01  1.114952E+05  1.000000E+00  8.079575E-01    1 
 3.500000E+01  5.000000E-01  5.000000E-01  1.111041E+05  1.000000E+00  8.038280E-01    1 
 3.540000E+01  5.000000E-01  5.000000E-01  1.107129E+05  1.000000E+00  7.998302E-01    1 
 3.580000E+01  5.000000E-01  5.000000E-01  1.103217E+05  1.000000E+00  7.959869E-01    1 
 3.620000E+01  5.000000E-01  5.000000E-01  1.099306E+05  1.000000E+00  7.923225E-01    1 
 3.660000E+01  5.000000E-01  5.000000E-01  1.095394E+05  1.000000E+00  7.888639E-01    1 
 3.700000E+01  5.000000E-01  5.000000E-01  1.091482E+05  1.000000E+00  7.856397E-01    1 
 3.740000E+01  5.000000E-01  5.000000E-01  1.087571E+05  1.000000E+00  7.826810E-01    1 
 3.780000E+01  5.000000E-01  5.000000E-01  1.083659E+05  1.000000E+00  7.800213E-01    1 
 3.820000E+01  5.000000E-01  5.000000E-01  1.079747E+05  1.000000E+00  7.776969E-01    1 
 3.860000E+01  5.000000E-01  5.000000E-01  1.075836E+05  1.000000E+00  7.757467E-01    1 
 3.900000E+01  5.000000E-01  5.000000E-01  1.071924E+05  1.000000E+00  7.742127E-01    1 
 3.940000E+01  5.000000E-01  5.000000E-01  1.068012E+05  1.000000E+00  7.731401E-01    1 
 3.980000E+01  5.000000E-01  5.000000E-01  1.064101E+05  1.000000E+00  7.725777E-01    1 
