TITLE = "  7.00000E+00 [d]"
VARIABLES="X [m]","Y [m]","Z [m]","Liquid Pressure [Pa]","Liquid Saturation","Total Tracer [M]","Material ID"
ZONE T="7.00000E+00", STRANDID=1, SOLUTIONTIME=7.00000E+00, I=100, J=1, K=1, DATAPACKING=POINT
 2.000000E-01  5.000000E-01  5.000000E-01  1.451351E+05  1.000000E+00  9.999592E-01    1 
 6.000000E-01  5.000000E-01  5.000000E-01  1.447440E+05  1.000000E+00  9.998736E-01    1 
 1.000000E+00  5.000000E-01  5.000000E-01  1.443528E+05  1.000000E+00  9.997799E-01    1 
 1.400000E+00  5.000000E-01  5.000000E-01  1.439617E+05  1.000000E+00  9.996776E-01    1 
 1.800000E+00  5.000000E-01  5.000000E-01  1.435705E+05  1.000000E+00  9.995662E-01    1 
 2.200000E+00  5.000000E-01  5.000000E-01  1.431794E+05  1.000000E+00  9.994451E-01    1 
 2.600000E+00  5.000000E-01  5.000000E-01  1.427882E+05  1.000000E+00  9.993138E-01    1 
 3.000000E+00  5.000000E-01  5.000000E-01  1.423970E+05  1.000000E+00  9.991717E-01    1 
 3.400000E+00  5.000000E-01  5.000000E-01  1.420059E+05  1.000000E+00  9.990182E-01    1 
 3.800000E+00  5.000000E-01  5.000000E-01  1.416147E+05  1.000000E+00  9.988527E-01    1 
 4.200000E+00  5.000000E-01  5.000000E-01  1.412236E+05  1.000000E+00  9.986745E-01    1 
 4.600000E+00  5.000000E-01  5.000000E-01  1.408324E+05  1.000000E+00  9.984830E-01    1 
 5.000000E+00  5.000000E-01  5.000000E-01  1.404412E+05  1.000000E+00  9.982774E-01    1 
 5.400000E+00  5.000000E-01  5.000000E-01  1.400501E+05  1.000000E+00  9.980571E-01    1 
 5.800000E+00  5.000000E-01  5.000000E-01  1.396589E+05  1.000000E+00  9.978213E-01    1 
 6.200000E+00  5.000000E-01  5.000000E-01  1.392678E+05  1.000000E+00  9.975693E-01    1 
 6.600000E+00  5.000000E-01  5.000000E-01  1.388766E+05  1.000000E+00  9.973002E-01    1 
 7.000000E+00  5.000000E-01  5.000000E-01  1.384854E+05  1.000000E+00  9.970133E-01    1 
 7.400000E+00  5.000000E-01  5.000000E-01  1.380943E+05  1.000000E+00  9.967077E-01    1 
 7.800000E+00  5.000000E-01  5.000000E-01  1.377031E+05  1.000000E+00  9.963825E-01    1 
 8.200000E+00  5.000000E-01  5.000000E-01  1.373120E+05  1.000000E+00  9.960370E-01    1 
 8.600000E+00  5.000000E-01  5.000000E-01  1.369208E+05  1.000000E+00  9.956702E-01    1 
 9.000000E+00  5.000000E-01  5.000000E-01  1.365296E+05  1.000000E+00  9.952812E-01    1 
 9.400000E+00  5.000000E-01  5.000000E-01  1.361385E+05  1.000000E+00  9.948689E-01    1 
 9.800000E+00  5.000000E-01  5.000000E-01  1.357473E+05  1.000000E+00  9.944326E-01    1 
 1.020000E+01  5.000000E-01  5.000000E-01  1.353562E+05  1.000000E+00  9.939711E-01    1 
 1.060000E+01  5.000000E-01  5.000000E-01  1.349650E+05  1.000000E+00  9.934836E-01    1 
 1.100000E+01  5.000000E-01  5.000000E-01  1.345738E+05  1.000000E+00  9.929688E-01    1 
 1.140000E+01  5.000000E-01  5.000000E-01  1.341827E+05  1.000000E+00  9.924259E-01    1 
 1.180000E+01  5.000000E-01  5.000000E-01  1.337915E+05  1.000000E+00  9.918538E-01    1 
 1.220000E+01  5.000000E-01  5.000000E-01  1.334004E+05  1.000000E+00  9.912513E-01    1 
 1.260000E+01  5.000000E-01  5.000000E-01  1.330092E+05  1.000000E+00  9.906174E-01    1 
 1.300000E+01  5.000000E-01  5.000000E-01  1.326180E+05  1.000000E+00  9.899511E-01    1 
 1.340000E+01  5.000000E-01  5.000000E-01  1.322269E+05  1.000000E+00  9.892511E-01    1 
 1.380000E+01  5.000000E-01  5.000000E-01  1.318357E+05  1.000000E+00  9.885163E-01    1 
 1.420000E+01  5.000000E-01  5.000000E-01  1.314445E+05  1.000000E+00  9.877457E-01    1 
 1.460000E+01  5.000000E-01  5.000000E-01  1.310534E+05  1.000000E+00  9.869381E-01    1 
 1.500000E+01  5.000000E-01  5.000000E-01  1.306622E+05  1.000000E+00  9.860923E-01    1 
 1.540000E+01  5.000000E-01  5.000000E-01  1.302711E+05  1.000000E+00  9.852072E-01    1 
 1.580000E+01  5.000000E-01  5.000000E-01  1.298799E+05  1.000000E+00  9.842817E-01    1 
 1.620000E+01  5.000000E-01  5.000000E-01  1.294887E+05  1.000000E+00  9.833146E-01    1 
 1.660000E+01  5.000000E-01  5.000000E-01  1.290976E+05  1.000000E+00  9.823048E-01    1 
 1.700000E+01  5.000000E-01  5.000000E-01  1.287064E+05  1.000000E+00  9.812512E-01    1 
 1.740000E+01  5.000000E-01  5.000000E-01  1.283153E+05  1.000000E+00  9.801526E-01    1 
 1.780000E+01  5.000000E-01  5.000000E-01  1.279241E+05  1.000000E+00  9.790080E-01    1 
 1.820000E+01  5.000000E-01  5.000000E-01  1.275329E+05  1.000000E+00  9.778163E-01    1 
 1.860000E+01  5.000000E-01  5.000000E-01  1.271418E+05  1.000000E+00  9.765765E-01    1 
 1.900000E+01  5.000000E-01  5.000000E-01  1.267506E+05  1.000000E+00  9.752875E-01    1 
 1.940000E+01  5.000000E-01  5.000000E-01  1.263594E+05  1.000000E+00  9.739484E-01    1 
 1.980000E+01  5.000000E-01  5.000000E-01  1.259683E+05  1.000000E+00  9.725582E-01    1 
 2.020000E+01  5.000000E-01  5.000000E-01  1.255771E+05  1.000000E+00  9.711161E-01    1 
 2.060000E+01  5.000000E-01  5.000000E-01  1.251860E+05  1.000000E+00  9.696211E-01    1 
 2.100000E+01  5.000000E-01  5.000000E-01  1.247948E+05  1.000000E+00  9.680727E-01    1 
 2.140000E+01  5.000000E-01  5.000000E-01  1.244036E+05  1.000000E+00  9.664699E-01    1 
 2.180000E+01  5.000000E-01  5.000000E-01  1.240125E+05  1.000000E+00  9.648122E-01    1 
 2.220000E+01  5.000000E-01  5.000000E-01  1.236213E+05  1.000000E+00  9.630991E-01    1 
 2.260000E+01  5.000000E-01  5.000000E-01  1.232301E+05  1.000000E+00  9.613301E-01    1 
 2.300000E+01  5.000000E-01  5.000000E-01  1.228390E+05  1.000000E+00  9.595047E-01    1 
 2.340000E+01  5.000000E-01  5.000000E-01  1.224478E+05  1.000000E+00  9.576228E-01    1 
 2.380000E+01  5.000000E-01  5.000000E-01  1.220567E+05  1.000000E+00  9.556843E-01    1 
 2.420000E+01  5.000000E-01  5.000000E-01  1.216655E+05  1.000000E+00  9.536890E-01    1 
 2.460000E+01  5.000000E-01  5.000000E-01  1.212743E+05  1.000000E+00  9.516373E-01    1 
 2.500000E+01  5.000000E-01  5.000000E-01  1.208832E+05  1.000000E+00  9.495293E-01    1 
 2.540000E+01  5.000000E-01  5.000000E-01  1.204920E+05  1.000000E+00  9.473656E-01    1 
 2.580000E+01  5.000000E-01  5.000000E-01  1.201008E+05  1.000000E+00  9.451467E-01    1 
 2.620000E+01  5.000000E-01  5.000000E-01  1.197097E+05  1.000000E+00  9.428737E-01    1 
 2.660000E+01  5.000000E-01  5.000000E-01  1.193185E+05  1.000000E+00  9.405474E-01    1 
 2.700000E+01  5.000000E-01  5.000000E-01  1.189273E+05  1.000000E+00  9.381694E-01    1 
 2.740000E+01  5.000000E-01  5.000000E-01  1.185362E+05  1.000000E+00  9.357410E-01    1 
 2.780000E+01  5.000000E-01  5.000000E-01  1.181450E+05  1.000000E+00  9.332642E-01    1 
 2.820000E+01  5.000000E-01  5.000000E-01  1.177539E+05  1.000000E+00  9.307412E-01    1 
 2.860000E+01  5.000000E-01  5.000000E-01  1.173627E+05  1.000000E+00  9.281742E-01    1 
 2.900000E+01  5.000000E-01  5.000000E-01  1.169715E+05  1.000000E+00  9.255663E-01    1 
 2.940000E+01  5.000000E-01  5.000000E-01  1.165804E+05  1.000000E+00  9.229205E-01    1 
 2.980000E+01  5.000000E-01  5.000000E-01  1.161892E+05  1.000000E+00  9.202405E-01    1 
 3.020000E+01  5.000000E-01  5.000000E-01  1.157980E+05  1.000000E+00  9.175301E-01    1 
 3.060000E+01  5.000000E-01  5.000000E-01  1.154069E+05  1.000000E+00  9.147940E-01    1 
 3.100000E+01  5.000000E-01  5.000000E-01  1.150157E+05  1.000000E+00  9.120370E-01    1 
 3.140000E+01  5.000000E-01  5.000000E-01  1.146245E+05  1.000000E+00  9.092647E-01    1 
 3.180000E+01  5.000000E-01  5.000000E-01  1.142334E+05  1.000000E+00  9.064831E-01    1 
 3.220000E+01  5.000000E-01  5.000000E-01  1.138422E+05  1.000000E+00  9.036989E-01    1 
 3.260000E+01  5.000000E-01  5.000000E-01  1.134510E+05  1.000000E+00  9.009194E-01    1 
 3.300000E+01  5.000000E-01  5.000000E-01  1.130599E+05  1.000000E+00  8.981526E-01    1 
 3.340000E+01  5.000000E-01  5.000000E-01  1.126687E+05  1.000000E+00  8.954074E-01    1 
 3.380000E+01  5.000000E-01  5.000000E-01  1.122776E+05  1.000000E+00  8.926932E-01    1 
 3.420000E+01  5.000000E-01  5.000000E-01  1.118864E+05  1.000000E+00  8.900206E-01    1 
 3.460000E+01  5.000000E-01  5.000000E-01  1.114952E+05  1.000000E+00  8.874009E-01    1 
 3.500000E+01  5.000000E-01  5.000000E-01  1.111041E+05  1.000000E+00  8.848464E-01    1 
 3.540000E+01  5.000000E-01  5.000000E-01  1.107129E+05  1.000000E+00  8.823705E-01    1 
 3.580000E+01  5.000000E-01  5.000000E-01  1.103217E+05  1.000000E+00  8.799876E-01    1 
 3.620000E+01  5.000000E-01  5.000000E-01  1.099306E+05  1.000000E+00  8.777136E-01    1 
 3.660000E+01  5.000000E-01  5.000000E-01  1.095394E+05  1.000000E+00  8.755652E-01    1 
 3.700000E+01  5.000000E-01  5.000000E-01  1.091482E+05  1.000000E+00  8.735608E-01    1 
 3.740000E+01  5.000000E-01  5.000000E-01  1.087571E+05  1.000000E+00  8.717202E-01    1 
 3.780000E+01  5.000000E-01  5.000000E-01  1.083659E+05  1.000000E+00  8.700646E-01    1 
 3.820000E+01  5.000000E-01  5.000000E-01  1.079747E+05  1.000000E+00  8.686169E-01    1 
 3.860000E+01  5.000000E-01  5.000000E-01  1.075836E+05  1.000000E+00  8.674017E-01    1 
 3.900000E+01  5.000000E-01  5.000000E-01  1.071924E+05  1.000000E+00  8.664456E-01    1 
 3.940000E+01  5.000000E-01  5.000000E-01  1.068012E+05  1.000000E+00  8.657769E-01    1 
 3.980000E+01  5.000000E-01  5.000000E-01  1.064101E+05  1.000000E+00  8.654262E-01    1 
