TITLE = "  2.00000E+00 [d]"
VARIABLES="X [m]","Y [m]","Z [m]","Liquid Pressure [Pa]","Liquid Saturation","Total Tracer [M]","Material ID"
ZONE T="2.00000E+00", STRANDID=1, SOLUTIONTIME=2.00000E+00, I=100, J=1, K=1, DATAPACKING=POINT
 2.000000E-01  5.000000E-01  5.000000E-01  1.451351E+05  1.000000E+00  9.709048E-01    1 
 6.000000E-01  5.000000E-01  5.000000E-01  1.447440E+05  1.000000E+00  9.106067E-01    1 
 1.000000E+00  5.000000E-01  5.000000E-01  1.443528E+05  1.000000E+00  8.467109E-01    1 
 1.400000E+00  5.000000E-01  5.000000E-01  1.439617E+05  1.000000E+00  7.804936E-01    1 
 1.800000E+00  5.000000E-01  5.000000E-01  1.435705E+05  1.000000E+00  7.132702E-01    1 
 2.200000E+00  5.000000E-01  5.000000E-01  1.431794E+05  1.000000E+00  6.463165E-01    1 
 2.600000E+00  5.000000E-01  5.000000E-01  1.427882E+05  1.000000E+00  5.808014E-01    1 
 3.000000E+00  5.000000E-01  5.000000E-01  1.423970E+05  1.000000E+00  5.177366E-01    1 
 3.400000E+00  5.000000E-01  5.000000E-01  1.420059E+05  1.000000E+00  4.579447E-01    1 
 3.800000E+00  5.000000E-01  5.000000E-01  1.416147E+05  1.000000E+00  4.020459E-01    1 
 4.200000E+00  5.000000E-01  5.000000E-01  1.412236E+05  1.000000E+00  3.504607E-01    1 
 4.600000E+00  5.000000E-01  5.000000E-01  1.408324E+05  1.000000E+00  3.034241E-01    1 
 5.000000E+00  5.000000E-01  5.000000E-01  1.404412E+05  1.000000E+00  2.610081E-01    1 
 5.400000E+00  5.000000E-01  5.000000E-01  1.400501E+05  1.000000E+00  2.231496E-01    1 
 5.800000E+00  5.000000E-01  5.000000E-01  1.396589E+05  1.000000E+00  1.896782E-01    1 
 6.200000E+00  5.000000E-01  5.000000E-01  1.392678E+05  1.000000E+00  1.603448E-01    1 
 6.600000E+00  5.000000E-01  5.000000E-01  1.388766E+05  1.000000E+00  1.348465E-01    1 
 7.000000E+00  5.000000E-01  5.000000E-01  1.384854E+05  1.000000E+00  1.128490E-01    1 
 7.400000E+00  5.000000E-01  5.000000E-01  1.380943E+05  1.000000E+00  9.400443E-02    1 
 7.800000E+00  5.000000E-01  5.000000E-01  1.377031E+05  1.000000E+00  7.796592E-02    1 
 8.200000E+00  5.000000E-01  5.000000E-01  1.373120E+05  1.000000E+00  6.439831E-02    1 
 8.600000E+00  5.000000E-01  5.000000E-01  1.369208E+05  1.000000E+00  5.298568E-02    1 
 9.000000E+00  5.000000E-01  5.000000E-01  1.365296E+05  1.000000E+00  4.343624E-02    1 
 9.400000E+00  5.000000E-01  5.000000E-01  1.361385E+05  1.000000E+00  3.548505E-02    1 
 9.800000E+00  5.000000E-01  5.000000E-01  1.357473E+05  1.000000E+00  2.889499E-02    1 
 1.020000E+01  5.000000E-01  5.000000E-01  1.353562E+05  1.000000E+00  2.345648E-02    1 
 1.060000E+01  5.000000E-01  5.000000E-01  1.349650E+05  1.000000E+00  1.898633E-02    1 
 1.100000E+01  5.000000E-01  5.000000E-01  1.345738E+05  1.000000E+00  1.532594E-02    1 
 1.140000E+01  5.000000E-01  5.000000E-01  1.341827E+05  1.000000E+00  1.233920E-02    1 
 1.180000E+01  5.000000E-01  5.000000E-01  1.337915E+05  1.000000E+00  9.910202E-03    1 
 1.220000E+01  5.000000E-01  5.000000E-01  1.334004E+05  1.000000E+00  7.940936E-03    1 
 1.260000E+01  5.000000E-01  5.000000E-01  1.330092E+05  1.000000E+00  6.349059E-03    1 
 1.300000E+01  5.000000E-01  5.000000E-01  1.326180E+05  1.000000E+00  5.065786E-03    1 
 1.340000E+01  5.000000E-01  5.000000E-01  1.322269E+05  1.000000E+00  4.033968E-03    1 
 1.380000E+01  5.000000E-01  5.000000E-01  1.318357E+05  1.000000E+00  3.206356E-03    1 
 1.420000E+01  5.000000E-01  5.000000E-01  1.314445E+05  1.000000E+00  2.544062E-03    1 
 1.460000E+01  5.000000E-01  5.000000E-01  1.310534E+05  1.000000E+00  2.015210E-03    1 
 1.500000E+01  5.000000E-01  5.000000E-01  1.306622E+05  1.000000E+00  1.593779E-03    1 
 1.540000E+01  5.000000E-01  5.000000E-01  1.302711E+05  1.000000E+00  1.258597E-03    1 
 1.580000E+01  5.000000E-01  5.000000E-01  1.298799E+05  1.000000E+00  9.924994E-04    1 
 1.620000E+01  5.000000E-01  5.000000E-01  1.294887E+05  1.000000E+00  7.816105E-04    1 
 1.660000E+01  5.000000E-01  5.000000E-01  1.290976E+05  1.000000E+00  6.147484E-04    1 
 1.700000E+01  5.000000E-01  5.000000E-01  1.287064E+05  1.000000E+00  4.829251E-04    1 
 1.740000E+01  5.000000E-01  5.000000E-01  1.283153E+05  1.000000E+00  3.789349E-04    1 
 1.780000E+01  5.000000E-01  5.000000E-01  1.279241E+05  1.000000E+00  2.970143E-04    1 
 1.820000E+01  5.000000E-01  5.000000E-01  1.275329E+05  1.000000E+00  2.325638E-04    1 
 1.860000E+01  5.000000E-01  5.000000E-01  1.271418E+05  1.000000E+00  1.819205E-04    1 
 1.900000E+01  5.000000E-01  5.000000E-01  1.267506E+05  1.000000E+00  1.421732E-04    1 
 1.940000E+01  5.000000E-01  5.000000E-01  1.263594E+05  1.000000E+00  1.110122E-04    1 
 1.980000E+01  5.000000E-01  5.000000E-01  1.259683E+05  1.000000E+00  8.660845E-05    1 
 2.020000E+01  5.000000E-01  5.000000E-01  1.255771E+05  1.000000E+00  6.751567E-05    1 
 2.060000E+01  5.000000E-01  5.000000E-01  1.251860E+05  1.000000E+00  5.259219E-05    1 
 2.100000E+01  5.000000E-01  5.000000E-01  1.247948E+05  1.000000E+00  4.093801E-05    1 
 2.140000E+01  5.000000E-01  5.000000E-01  1.244036E+05  1.000000E+00  3.184467E-05    1 
 2.180000E+01  5.000000E-01  5.000000E-01  1.240125E+05  1.000000E+00  2.475520E-05    1 
 2.220000E+01  5.000000E-01  5.000000E-01  1.236213E+05  1.000000E+00  1.923223E-05    1 
 2.260000E+01  5.000000E-01  5.000000E-01  1.232301E+05  1.000000E+00  1.493276E-05    1 
 2.300000E+01  5.000000E-01  5.000000E-01  1.228390E+05  1.000000E+00  1.158805E-05    1 
 2.340000E+01  5.000000E-01  5.000000E-01  1.224478E+05  1.000000E+00  8.987788E-06    1 
 2.380000E+01  5.000000E-01  5.000000E-01  1.220567E+05  1.000000E+00  6.967530E-06    1 
 2.420000E+01  5.000000E-01  5.000000E-01  1.216655E+05  1.000000E+00  5.398827E-06    1 
 2.460000E+01  5.000000E-01  5.000000E-01  1.212743E+05  1.000000E+00  4.181431E-06    1 
 2.500000E+01  5.000000E-01  5.000000E-01  1.208832E+05  1.000000E+00  3.237169E-06    1 
 2.540000E+01  5.000000E-01  5.000000E-01  1.204920E+05  1.000000E+00  2.505130E-06    1 
 2.580000E+01  5.000000E-01  5.000000E-01  1.201008E+05  1.000000E+00  1.937886E-06    1 
 2.620000E+01  5.000000E-01  5.000000E-01  1.197097E+05  1.000000E+00  1.498539E-06    1 
 2.660000E+01  5.000000E-01  5.000000E-01  1.193185E+05  1.000000E+00  1.158398E-06    1 
 2.700000E+01  5.000000E-01  5.000000E-01  1.189273E+05  1.000000E+00  8.951695E-07    1 
 2.740000E+01  5.000000E-01  5.000000E-01  1.185362E+05  1.000000E+00  6.915404E-07    1 
 2.780000E+01  5.000000E-01  5.000000E-01  1.181450E+05  1.000000E+00  5.340743E-07    1 
 2.820000E+01  5.000000E-01  5.000000E-01  1.177539E+05  1.000000E+00  4.123484E-07    1 
 2.860000E+01  5.000000E-01  5.000000E-01  1.173627E+05  1.000000E+00  3.182817E-07    1 
 2.900000E+01  5.000000E-01  5.000000E-01  1.169715E+05  1.000000E+00  2.456122E-07    1 
 2.940000E+01  5.000000E-01  5.000000E-01  1.165804E+05  1.000000E+00  1.894892E-07    1 
 2.980000E+01  5.000000E-01  5.000000E-01  1.161892E+05  1.000000E+00  1.461575E-07    1 
 3.020000E+01  5.000000E-01  5.000000E-01  1.157980E+05  1.000000E+00  1.127105E-07    1 
 3.060000E+01  5.000000E-01  5.000000E-01  1.154069E+05  1.000000E+00  8.690003E-08    1 
 3.100000E+01  5.000000E-01  5.000000E-01  1.150157E+05  1.000000E+00  6.698721E-08    1 
 3.140000E+01  5.000000E-01  5.000000E-01  1.146245E+05  1.000000E+00  5.162796E-08    1 
 3.180000E+01  5.000000E-01  5.000000E-01  1.142334E+05  1.000000E+00  3.978353E-08    1 
 3.220000E+01  5.000000E-01  5.000000E-01  1.138422E+05  1.000000E+00  3.065146E-08    1 
 3.260000E+01  5.000000E-01  5.000000E-01  1.134510E+05  1.000000E+00  2.361199E-08    1 
 3.300000E+01  5.000000E-01  5.000000E-01  1.130599E+05  1.000000E+00  1.818662E-08    1 
 3.340000E+01  5.000000E-01  5.000000E-01  1.126687E+05  1.000000E+00  1.400598E-08    1 
 3.380000E+01  5.000000E-01  5.000000E-01  1.122776E+05  1.000000E+00  1.078506E-08    1 
 3.420000E+01  5.000000E-01  5.000000E-01  1.118864E+05  1.000000E+00  8.303984E-09    1 
 3.460000E+01  5.000000E-01  5.000000E-01  1.114952E+05  1.000000E+00  6.393153E-09    1 
 3.500000E+01  5.000000E-01  5.000000E-01  1.111041E+05  1.000000E+00  4.921807E-09    1 
 3.540000E+01  5.000000E-01  5.000000E-01  1.107129E+05  1.000000E+00  3.789158E-09    1 
 3.580000E+01  5.000000E-01  5.000000E-01  1.103217E+05  1.000000E+00  2.917549E-09    1 
 3.620000E+01  5.000000E-01  5.000000E-01  1.099306E+05  1.000000E+00  2.247189E-09    1 
 3.660000E+01  5.000000E-01  5.000000E-01  1.095394E+05  1.000000E+00  1.732083E-09    1 
 3.700000E+01  5.000000E-01  5.000000E-01  1.091482E+05  1.000000E+00  1.336914E-09    1 
 3.740000E+01  5.000000E-01  5.000000E-01  1.087571E+05  1.000000E+00  1.034639E-09    1 
 3.780000E+01  5.000000E-01  5.000000E-01  1.083659E+05  1.000000E+00  8.046692E-10    1 
 3.820000E+01  5.000000E-01  5.000000E-01  1.079747E+05  1.000000E+00  6.314907E-10    1 
 3.860000E+01  5.000000E-01  5.000000E-01  1.075836E+05  1.000000E+00  5.036444E-10    1 
 3.900000E+01  5.000000E-01  5.000000E-01  1.071924E+05  1.000000E+00  4.130058E-10    1 
 3.940000E+01  5.000000E-01  5.000000E-01  1.068012E+05  1.000000E+00  3.543183E-10    1 
 3.980000E+01  5.000000E-01  5.000000E-01  1.064101E+05  1.000000E+00  3.249624E-10    1 
