TITLE = "  1.00000E+01 [d]"
VARIABLES="X [m]","Y [m]","Z [m]","Liquid Pressure [Pa]","Liquid Saturation","Total Tracer [M]","Material ID"
ZONE T="1.00000E+01", STRANDID=1, SOLUTIONTIME=1.00000E+01, I=20, J=1, K=1, DATAPACKING=POINT
 1.000000E+00  5.000000E-01  5.000000E-01  1.443528E+05  1.000000E+00  9.998996E-01    1 
 3.000000E+00  5.000000E-01  5.000000E-01  1.423970E+05  1.000000E+00  9.996562E-01    1 
 5.000000E+00  5.000000E-01  5.000000E-01  1.404412E+05  1.000000E+00  9.993166E-01    1 
 7.000000E+00  5.000000E-01  5.000000E-01  1.384854E+05  1.000000E+00  9.988571E-01    1 
 9.000000E+00  5.000000E-01  5.000000E-01  1.365296E+05  1.000000E+00  9.982511E-01    1 
 1.100000E+01  5.000000E-01  5.000000E-01  1.345738E+05  1.000000E+00  9.974691E-01    1 
 1.300000E+01  5.000000E-01  5.000000E-01  1.326180E+05  1.000000E+00  9.964791E-01    1 
 1.500000E+01  5.000000E-01  5.000000E-01  1.306622E+05  1.000000E+00  9.952480E-01    1 
 1.700000E+01  5.000000E-01  5.000000E-01  1.287064E+05  1.000000E+00  9.937427E-01    1 
 1.900000E+01  5.000000E-01  5.000000E-01  1.267506E+05  1.000000E+00  9.919326E-01    1 
 2.100000E+01  5.000000E-01  5.000000E-01  1.247948E+05  1.000000E+00  9.897927E-01    1 
 2.300000E+01  5.000000E-01  5.000000E-01  1.228390E+05  1.000000E+00  9.873076E-01    1 
 2.500000E+01  5.000000E-01  5.000000E-01  1.208832E+05  1.000000E+00  9.844774E-01    1 
 2.700000E+01  5.000000E-01  5.000000E-01  1.189273E+05  1.000000E+00  9.813253E-01    1 
 2.900000E+01  5.000000E-01  5.000000E-01  1.169715E+05  1.000000E+00  9.779071E-01    1 
 3.100000E+01  5.000000E-01  5.000000E-01  1.150157E+05  1.000000E+00  9.743236E-01    1 
 3.300000E+01  5.000000E-01  5.000000E-01  1.130599E+05  1.000000E+00  9.707360E-01    1 
 3.500000E+01  5.000000E-01  5.000000E-01  1.111041E+05  1.000000E+00  9.673859E-01    1 
 3.700000E+01  5.000000E-01  5.000000E-01  1.091482E+05  1.000000E+00  9.646185E-01    1 
 3.900000E+01  5.000000E-01  5.000000E-01  1.071924E+05  1.000000E+00  9.629121E-01    1 
