TITLE = "  4.00000E+00 [d]"
VARIABLES="X [m]","Y [m]","Z [m]","Liquid Pressure [Pa]","Liquid Saturation","Total Tracer [M]","Material ID"
ZONE T="4.00000E+00", STRANDID=1, SOLUTIONTIME=4.00000E+00, I=10, J=1, K=1, DATAPACKING=POINT
 2.000000E+00  5.000000E-01  5.000000E-01  1.433749E+05  1.000000E+00  9.900602E-01    1 
 6.000000E+00  5.000000E-01  5.000000E-01  1.394633E+05  1.000000E+00  9.639198E-01    1 
 1.000000E+01  5.000000E-01  5.000000E-01  1.355517E+05  1.000000E+00  9.246035E-01    1 
 1.400000E+01  5.000000E-01  5.000000E-01  1.316401E+05  1.000000E+00  8.716673E-01    1 
 1.800000E+01  5.000000E-01  5.000000E-01  1.277285E+05  1.000000E+00  8.064169E-01    1 
 2.200000E+01  5.000000E-01  5.000000E-01  1.238169E+05  1.000000E+00  7.318251E-01    1 
 2.600000E+01  5.000000E-01  5.000000E-01  1.199053E+05  1.000000E+00  6.523196E-01    1 
 3.000000E+01  5.000000E-01  5.000000E-01  1.159936E+05  1.000000E+00  5.738214E-01    1 
 3.400000E+01  5.000000E-01  5.000000E-01  1.120820E+05  1.000000E+00  5.046099E-01    1 
 3.800000E+01  5.000000E-01  5.000000E-01  1.081703E+05  1.000000E+00  4.579391E-01    1 
