TITLE = "  6.00000E+00 [d]"
VARIABLES="X [m]","Y [m]","Z [m]","Liquid Pressure [Pa]","Liquid Saturation","Total Tracer [M]","Material ID"
ZONE T="6.00000E+00", STRANDID=1, SOLUTIONTIME=6.00000E+00, I=10, J=1, K=1, DATAPACKING=POINT
 2.000000E+00  5.000000E-01  5.000000E-01  1.433749E+05  1.000000E+00  9.966282E-01    1 
 6.000000E+00  5.000000E-01  5.000000E-01  1.394633E+05  1.000000E+00  9.875547E-01    1 
 1.000000E+01  5.000000E-01  5.000000E-01  1.355517E+05  1.000000E+00  9.731987E-01    1 
 1.400000E+01  5.000000E-01  5.000000E-01  1.316401E+05  1.000000E+00  9.524579E-01    1 
 1.800000E+01  5.000000E-01  5.000000E-01  1.277285E+05  1.000000E+00  9.246454E-01    1 
 2.200000E+01  5.000000E-01  5.000000E-01  1.238169E+05  1.000000E+00  8.897907E-01    1 
 2.600000E+01  5.000000E-01  5.000000E-01  1.199053E+05  1.000000E+00  8.490235E-01    1 
 3.000000E+01  5.000000E-01  5.000000E-01  1.159936E+05  1.000000E+00  8.051486E-01    1 
 3.400000E+01  5.000000E-01  5.000000E-01  1.120820E+05  1.000000E+00  7.636200E-01    1 
 3.800000E+01  5.000000E-01  5.000000E-01  1.081703E+05  1.000000E+00  7.342666E-01    1 
