TITLE = "  7.00000E+00 [d]"
VARIABLES="X [m]","Y [m]","Z [m]","Liquid Pressure [Pa]","Liquid Saturation","Total Tracer [M]","Material ID"
ZONE T="7.00000E+00", STRANDID=1, SOLUTIONTIME=7.00000E+00, I=10, J=1, K=1, DATAPACKING=POINT
 2.000000E+00  5.000000E-01  5.000000E-01  1.433749E+05  1.000000E+00  9.979445E-01    1 
 6.000000E+00  5.000000E-01  5.000000E-01  1.394633E+05  1.000000E+00  9.923807E-01    1 
 1.000000E+01  5.000000E-01  5.000000E-01  1.355517E+05  1.000000E+00  9.834629E-01    1 
 1.400000E+01  5.000000E-01  5.000000E-01  1.316401E+05  1.000000E+00  9.703437E-01    1 
 1.800000E+01  5.000000E-01  5.000000E-01  1.277285E+05  1.000000E+00  9.523669E-01    1 
 2.200000E+01  5.000000E-01  5.000000E-01  1.238169E+05  1.000000E+00  9.293031E-01    1 
 2.600000E+01  5.000000E-01  5.000000E-01  1.199053E+05  1.000000E+00  9.016865E-01    1 
 3.000000E+01  5.000000E-01  5.000000E-01  1.159936E+05  1.000000E+00  8.713218E-01    1 
 3.400000E+01  5.000000E-01  5.000000E-01  1.120820E+05  1.000000E+00  8.420810E-01    1 
 3.800000E+01  5.000000E-01  5.000000E-01  1.081703E+05  1.000000E+00  8.211795E-01    1 
